3 
Step: 1      Time_fs: 0.1451330595903
O  -0.05211102   0.00000000  -0.04071241
H  -0.05339730  -0.00000000   0.92080555
H   0.88055388  -0.00000000  -0.27457868
3 
Step: 2      Time_fs: 0.2902661191806
O  -0.05206104   0.00000000  -0.04066985
H  -0.05446027  -0.00000000   0.92129272
H   0.88082350  -0.00000000  -0.27574146
3 
Step: 3      Time_fs: 0.4353991787709
O  -0.05197752   0.00000000  -0.04059876
H  -0.05622869  -0.00000000   0.92209729
H   0.88126631  -0.00000000  -0.27767452
3 
Step: 4      Time_fs: 0.5805322383612
O  -0.05186017   0.00000000  -0.04049890
H  -0.05869780  -0.00000000   0.92320830
H   0.88187258  -0.00000000  -0.28037050
3 
Step: 5      Time_fs: 0.7256652979515
O  -0.05170854   0.00000000  -0.04036998
H  -0.06186093  -0.00000000   0.92461066
H   0.88262893  -0.00000000  -0.28381921
3 
Step: 6      Time_fs: 0.8707983575418
O  -0.05152212   0.00000000  -0.04021162
H  -0.06570954  -0.00000000   0.92628538
H   0.88351856  -0.00000000  -0.28800765
