3 
Step: 1      Time_fs: 0.1451330595903
 O -0.05218767 0.00000000 -0.04077347
 H -0.05275381 0.00000000 0.92125443
 H 0.88112706 0.00000000 -0.27405838
