3 
Step: 1      Time_fs:0.0967553730602
 O -0.00006653 0.00000000 -0.00005198
 H -0.00097649 0.00000000 0.96135724
 H 0.93256471 0.00000000 -0.23352081
3 
Step: 2      Time_fs:0.1935107461204
 O -0.00007412 0.00000000 -0.00005791
 H -0.00096894 0.00000000 0.96147167
 H 0.93267757 0.00000000 -0.23354118
3 
Step: 3      Time_fs:0.2902661191806
 O -0.00008672 0.00000000 -0.00006775
 H -0.00095633 0.00000000 0.96166158
 H 0.93286489 0.00000000 -0.23357488
3 
Step: 4      Time_fs:0.3870214922408
 O -0.00010426 0.00000000 -0.00008145
 H -0.00093860 0.00000000 0.96192586
 H 0.93312561 0.00000000 -0.23362162
3 
Step: 5      Time_fs:0.483776865301
 O -0.00012666 0.00000000 -0.00009896
 H -0.00091570 0.00000000 0.96226307
 H 0.93345835 0.00000000 -0.23368097
3 
Step: 6      Time_fs:0.5805322383612
 O -0.00015383 0.00000000 -0.00012018
 H -0.00088754 0.00000000 0.96267144
 H 0.93386139 0.00000000 -0.23375244
3 
Step: 7      Time_fs:0.6772876114214
 O -0.00018563 0.00000000 -0.00014503
 H -0.00085403 0.00000000 0.96314884
 H 0.93433272 0.00000000 -0.23383543
3 
Step: 8      Time_fs:0.7740429844816
 O -0.00022194 0.00000000 -0.00017339
 H -0.00081508 0.00000000 0.96369286
 H 0.93487000 0.00000000 -0.23392924
3 
Step: 9      Time_fs:0.8707983575418
 O -0.00026258 0.00000000 -0.00020515
 H -0.00077056 0.00000000 0.96430076
 H 0.93547061 0.00000000 -0.23403310
3 
Step: 10      Time_fs:0.967553730602
 O -0.00030739 0.00000000 -0.00024016
 H -0.00072035 0.00000000 0.96496953
 H 0.93613167 0.00000000 -0.23414617
3 
Step: 11      Time_fs:1.0643091036622
 O -0.00035618 0.00000000 -0.00027827
 H -0.00066430 0.00000000 0.96569592
 H 0.93685004 0.00000000 -0.23426752
3 
Step: 1      Time_fs:0.0967553730602
 O -0.00006653 0.00000000 -0.00005198
 H -0.00097649 0.00000000 0.96135724
 H 0.93256471 0.00000000 -0.23352081
3 
Step: 2      Time_fs:0.1935107461204
 O -0.00007412 0.00000000 -0.00005791
 H -0.00096894 0.00000000 0.96147167
 H 0.93267757 0.00000000 -0.23354118
3 
Step: 3      Time_fs:0.2902661191806
 O -0.00008672 0.00000000 -0.00006775
 H -0.00095633 0.00000000 0.96166158
 H 0.93286489 0.00000000 -0.23357488
3 
Step: 4      Time_fs:0.3870214922408
 O -0.00010426 0.00000000 -0.00008145
 H -0.00093860 0.00000000 0.96192586
 H 0.93312561 0.00000000 -0.23362162
3 
Step: 5      Time_fs:0.483776865301
 O -0.00012666 0.00000000 -0.00009896
 H -0.00091570 0.00000000 0.96226307
 H 0.93345835 0.00000000 -0.23368097
3 
Step: 6      Time_fs:0.5805322383612
 O -0.00015383 0.00000000 -0.00012018
 H -0.00088754 0.00000000 0.96267144
 H 0.93386139 0.00000000 -0.23375244
3 
Step: 7      Time_fs:0.6772876114214
 O -0.00018563 0.00000000 -0.00014503
 H -0.00085403 0.00000000 0.96314884
 H 0.93433272 0.00000000 -0.23383543
3 
Step: 8      Time_fs:0.7740429844816
 O -0.00022194 0.00000000 -0.00017339
 H -0.00081508 0.00000000 0.96369286
 H 0.93487000 0.00000000 -0.23392924
3 
Step: 9      Time_fs:0.8707983575418
 O -0.00026258 0.00000000 -0.00020515
 H -0.00077056 0.00000000 0.96430076
 H 0.93547061 0.00000000 -0.23403310
3 
Step: 10      Time_fs:0.967553730602
 O -0.00030739 0.00000000 -0.00024016
 H -0.00072035 0.00000000 0.96496953
 H 0.93613167 0.00000000 -0.23414617
3 
Step: 11      Time_fs:1.0643091036622
 O -0.00035618 0.00000000 -0.00027827
 H -0.00066430 0.00000000 0.96569592
 H 0.93685004 0.00000000 -0.23426752
