3 
Step: 1      Time_fs:0.0967553730602
 O -0.00006372 0.00000000 -0.00004978
 H -0.00103829 0.00000000 0.96139039
 H 0.93258192 0.00000000 -0.23358880
