3 
Step: 5      Time_fs: 0.7256652979515
O  -0.05367915   0.00000000  -0.04179551
H  -0.04544085   0.00000000   0.93402199
H   0.89748825  -0.00000000  -0.27060313
3 
Step: 10      Time_fs: 1.451330595903
O  -0.05800352   0.00000000  -0.04476534
H  -0.02308847   0.00000000   0.96967451
H   0.94377645  -0.00000000  -0.25911564
3 
Step: 15      Time_fs: 2.1769958938545
O  -0.06431110   0.00000000  -0.04904579
H   0.01252130   0.00000000   1.01700843
H   1.00828672  -0.00000000  -0.23850611
3 
Step: 20      Time_fs: 2.902661191806
O  -0.07172468   0.00000000  -0.05393134
H   0.05881360   0.00000000   1.06454596
H   1.07967005  -0.00000000  -0.20849548
