3 
Step: 1      Time_fs:0.1451330595903
 O -0.05218676 -0.05206366 -0.05215983
 H -0.05281665 -0.05206366 0.90993284
 H 0.88117540 -0.05206366 -0.28552227
3 
Step: 2      Time_fs:0.2902661191806
 O -0.05236344 -0.05206366 -0.05229787
 H -0.05213914 -0.05206366 0.91195609
 H 0.88330244 -0.05206366 -0.28535435
3 
Step: 3      Time_fs:0.4353991787709
 O -0.05265592 -0.05206366 -0.05252638
 H -0.05101169 -0.05206366 0.91529762
 H 0.88681746 -0.05206366 -0.28506878
3 
Step: 4      Time_fs:0.5805322383612
 O -0.05306125 -0.05206366 -0.05284306
 H -0.04943695 -0.05206366 0.91991285
 H 0.89167657 -0.05206366 -0.28465733
3 
Step: 5      Time_fs:0.7256652979515
 O -0.05357547 -0.05206366 -0.05324482
 H -0.04741871 -0.05206366 0.92574170
 H 0.89782053 -0.05206366 -0.28410918
3 
Step: 6      Time_fs:0.8707983575418
 O -0.05419370 -0.05206366 -0.05372783
 H -0.04496199 -0.05206366 0.93271072
 H 0.90517686 -0.05206366 -0.28341139
3 
Step: 7      Time_fs:1.0159314171321001
 O -0.05491027 -0.05206366 -0.05428768
 H -0.04207308 -0.05206366 0.94073547
 H 0.91366213 -0.05206366 -0.28254965
3 
Step: 8      Time_fs:1.1610644767224
 O -0.05571893 -0.05206366 -0.05491947
 H -0.03875959 -0.05206366 0.94972317
 H 0.92318445 -0.05206366 -0.28150890
3 
Step: 9      Time_fs:1.3061975363127
 O -0.05661295 -0.05206366 -0.05561795
 H -0.03503044 -0.05206366 0.95957522
 H 0.93364601 -0.05206366 -0.28027395
3 
Step: 10      Time_fs:1.451330595903
 O -0.05758529 -0.05206366 -0.05637763
 H -0.03089589 -0.05206366 0.97018970
 H 0.94494542 -0.05206366 -0.27883008
3 
Step: 11      Time_fs:1.5964636554933
 O -0.05862876 -0.05206366 -0.05719288
 H -0.02636743 -0.05206366 0.98146353
 H 0.95697990 -0.05206366 -0.27716352
3 
Step: 12      Time_fs:1.7415967150836
 O -0.05973611 -0.05206366 -0.05805804
 H -0.02145770 -0.05206366 0.99329447
 H 0.96964717 -0.05206366 -0.27526179
3 
Step: 13      Time_fs:1.8867297746739
 O -0.06090018 -0.05206366 -0.05896751
 H -0.01618039 -0.05206366 1.00558266
 H 0.98284703 -0.05206366 -0.27311402
3 
Step: 14      Time_fs:2.0318628342642002
 O -0.06211393 -0.05206366 -0.05991580
 H -0.01055007 -0.05206366 1.01823189
 H 0.99648261 -0.05206366 -0.27071107
3 
Step: 15      Time_fs:2.1769958938545
 O -0.06337058 -0.05206366 -0.06089760
 H -0.00458206 -0.05206366 1.03115059
 H 1.01046136 -0.05206366 -0.26804565
3 
Step: 16      Time_fs:2.3221289534448
 O -0.06466361 -0.05206366 -0.06190782
 H 0.00170777 -0.05206366 1.04425245
 H 1.02469567 -0.05206366 -0.26511227
3 
Step: 17      Time_fs:2.4672620130351
 O -0.06598681 -0.05206366 -0.06294162
 H 0.00830314 -0.05206366 1.05745685
 H 1.03910340 -0.05206366 -0.26190725
3 
Step: 18      Time_fs:2.6123950726254
 O -0.06733432 -0.05206366 -0.06399441
 H 0.01518749 -0.05206366 1.07068904
 H 1.05360801 -0.05206366 -0.25842854
3 
Step: 19      Time_fs:2.7575281322157
 O -0.06870063 -0.05206366 -0.06506189
 H 0.02234420 -0.05206366 1.08388022
 H 1.06813871 -0.05206366 -0.25467565
3 
Step: 20      Time_fs:2.902661191806
 O -0.07008059 -0.05206366 -0.06614003
 H 0.02975665 -0.05206366 1.09696737
 H 1.08263033 -0.05206366 -0.25064946
3 
Step: 21      Time_fs:3.0477942513963
 O -0.07146940 -0.05206366 -0.06722510
 H 0.03740836 -0.05206366 1.10989310
 H 1.09702322 -0.05206366 -0.24635205
3 
Step: 22      Time_fs:3.1929273109866
 O -0.07286262 -0.05206366 -0.06831360
 H 0.04528313 -0.05206366 1.12260538
 H 1.11126297 -0.05206366 -0.24178657
3 
Step: 23      Time_fs:3.3380603705769003
 O -0.07425613 -0.05206366 -0.06940233
 H 0.05336507 -0.05206366 1.13505723
 H 1.12530013 -0.05206366 -0.23695707
3 
Step: 24      Time_fs:3.4831934301672
 O -0.07564613 -0.05206366 -0.07048831
 H 0.06163871 -0.05206366 1.14720635
 H 1.13908994 -0.05206366 -0.23186833
3 
Step: 25      Time_fs:3.6283264897575003
 O -0.07702913 -0.05206366 -0.07156884
 H 0.07008905 -0.05206366 1.15901483
 H 1.15259196 -0.05206366 -0.22652573
3 
Step: 26      Time_fs:3.7734595493478
 O -0.07840193 -0.05206366 -0.07264138
 H 0.07870158 -0.05206366 1.17044873
 H 1.16576978 -0.05206366 -0.22093513
3 
Step: 27      Time_fs:3.9185926089381002
 O -0.07976158 -0.05206366 -0.07370366
 H 0.08746236 -0.05206366 1.18147781
 H 1.17859067 -0.05206366 -0.21510275
3 
Step: 28      Time_fs:4.0637256685284004
 O -0.08110539 -0.05206366 -0.07475356
 H 0.09635800 -0.05206366 1.19207516
 H 1.19102527 -0.05206366 -0.20903508
3 
Step: 29      Time_fs:4.2088587281187
 O -0.08243090 -0.05206366 -0.07578916
 H 0.10537568 -0.05206366 1.20221691
 H 1.20304734 -0.05206366 -0.20273877
3 
Step: 30      Time_fs:4.353991787709
 O -0.08373586 -0.05206366 -0.07680870
 H 0.11450320 -0.05206366 1.21188194
 H 1.21463341 -0.05206366 -0.19622056
3 
Step: 31      Time_fs:4.4991248472993
 O -0.08501822 -0.05206366 -0.07781060
 H 0.12372892 -0.05206366 1.22105160
 H 1.22576259 -0.05206366 -0.18948723
3 
Step: 32      Time_fs:4.6442579068896
 O -0.08627612 -0.05206366 -0.07879337
 H 0.13304179 -0.05206366 1.22970950
 H 1.23641629 -0.05206366 -0.18254552
3 
Step: 33      Time_fs:4.789390966479901
 O -0.08750785 -0.05206366 -0.07975571
 H 0.14243135 -0.05206366 1.23784124
 H 1.24657802 -0.05206366 -0.17540212
3 
Step: 34      Time_fs:4.9345240260702
 O -0.08871188 -0.05206366 -0.08069640
 H 0.15188770 -0.05206366 1.24543428
 H 1.25623320 -0.05206366 -0.16806358
3 
Step: 35      Time_fs:5.0796570856605
 O -0.08988681 -0.05206366 -0.08161436
 H 0.16140149 -0.05206366 1.25247767
 H 1.26536897 -0.05206366 -0.16053633
3 
Step: 36      Time_fs:5.2247901452508
 O -0.09103136 -0.05206366 -0.08250858
 H 0.17096394 -0.05206366 1.25896196
 H 1.27397401 -0.05206366 -0.15282663
3 
Step: 37      Time_fs:5.3699232048411005
 O -0.09214440 -0.05206366 -0.08337818
 H 0.18056674 -0.05206366 1.26487902
 H 1.28203843 -0.05206366 -0.14494053
3 
Step: 38      Time_fs:5.5150562644314
 O -0.09322489 -0.05206366 -0.08422236
 H 0.19020215 -0.05206366 1.27022191
 H 1.28955364 -0.05206366 -0.13688389
3 
Step: 39      Time_fs:5.6601893240217
 O -0.09427191 -0.05206366 -0.08504038
 H 0.19986289 -0.05206366 1.27498480
 H 1.29651218 -0.05206366 -0.12866237
3 
Step: 40      Time_fs:5.805322383612
 O -0.09528462 -0.05206366 -0.08583159
 H 0.20954215 -0.05206366 1.27916278
 H 1.30290768 -0.05206366 -0.12028137
