3 
Step: 1      Time_fs: 0.1451330595903
 O -0.05216556 0.00000000 -0.04075620
 H -0.05304417 0.00000000 0.92126432
 H 0.88106641 0.00000000 -0.27434251
3 
Step: 2      Time_fs: 0.2902661191806
 O -0.05227893 0.00000000 -0.04084477
 H -0.05304786 0.00000000 0.92312364
 H 0.88286960 0.00000000 -0.27479590
3 
Step: 3      Time_fs: 0.4353991787709
 O -0.05246680 0.00000000 -0.04099155
 H -0.05305118 0.00000000 0.92620133
 H 0.88585508 0.00000000 -0.27554367
