3 
Step: 1      Time_fs: 0.1451330595903
 O -0.05218867 0.00000000 -0.04077384
 H -0.05274309 -0.00000000 0.92125490
 H 0.88113156 -0.00000000 -0.27404750
3 
Step: 2      Time_fs: 0.2902661191806
 O -0.05237114 0.00000000 -0.04091514
 H -0.05184494 -0.00000000 0.92308355
 H 0.88312749 -0.00000000 -0.27361663
