3 
Step: 1      Time_fs: 0.1451330595903
O  -0.05212776  -0.00000000  -0.04073260
H  -0.05316167   0.00000000   0.92089057
H   0.88058400  -0.00000000  -0.27434324
3 
Step: 2      Time_fs: 0.2902661191806
O  -0.05212799  -0.00000000  -0.04075053
H  -0.05351832   0.00000000   0.92163224
H   0.88094432   0.00000000  -0.27480036
3 
Step: 3      Time_fs: 0.4353991787709
O  -0.05212812  -0.00000000  -0.04078000
H  -0.05411139   0.00000000   0.92285912
H   0.88153941   0.00000000  -0.27555951
3 
Step: 4      Time_fs: 0.5805322383612
O  -0.05212776  -0.00000000  -0.04082040
H  -0.05493889   0.00000000   0.92455755
H   0.88236119   0.00000000  -0.27661661
3 
Step: 5      Time_fs: 0.7256652979515
O  -0.05212639  -0.00000000  -0.04087091
H  -0.05599805   0.00000000   0.92670880
H   0.88339855   0.00000000  -0.27796605
3 
Step: 6      Time_fs: 0.8707983575418
O  -0.05212335  -0.00000000  -0.04093051
H  -0.05728529   0.00000000   0.92928947
H   0.88463760   0.00000000  -0.27960074
