3
Step: 1      Time_fs:0.0967553730602
 O 0.00000713 -0.00000054 0.00001867
 H 0.00002069 0.00018117 0.00004297
 H -0.00002489 -0.00009256 0.00004938

