3 
Step: 1      Time_fs:0.1451330595903
 O -0.00003713 0.00000000 -0.00002901
 H 0.00014228 0.00000000 0.00042531
 H 0.00044709 0.00000000 0.00003517
3 
Step: 2      Time_fs:0.2902661191806
 O -0.00007388 0.00000000 -0.00005772
 H 0.00028424 0.00000000 0.00084483
 H 0.00088850 0.00000000 0.00007141
3 
Step: 3      Time_fs:0.4353991787709
 O -0.00010989 0.00000000 -0.00008585
 H 0.00042553 0.00000000 0.00125301
 H 0.00131873 0.00000000 0.00010976
3 
Step: 4      Time_fs:0.5805322383612
 O -0.00014481 0.00000000 -0.00011314
 H 0.00056581 0.00000000 0.00164471
 H 0.00173273 0.00000000 0.00015112
3 
Step: 5      Time_fs:0.7256652979515
 O -0.00017833 0.00000000 -0.00013933
 H 0.00070470 0.00000000 0.00201537
 H 0.00212599 0.00000000 0.00019621
3 
Step: 6      Time_fs:0.8707983575418
 O -0.00021020 0.00000000 -0.00016423
 H 0.00084181 0.00000000 0.00236118
 H 0.00249469 0.00000000 0.00024559
3 
Step: 7      Time_fs:1.0159314171321001
 O -0.00024019 0.00000000 -0.00018766
 H 0.00097674 0.00000000 0.00267907
 H 0.00283578 0.00000000 0.00029960
3 
Step: 8      Time_fs:1.1610644767224
 O -0.00026813 0.00000000 -0.00020949
 H 0.00110906 0.00000000 0.00296683
 H 0.00314701 0.00000000 0.00035837
3 
Step: 9      Time_fs:1.3061975363127
 O -0.00029391 0.00000000 -0.00022963
 H 0.00123835 0.00000000 0.00322301
 H 0.00342686 0.00000000 0.00042185
3 
Step: 10      Time_fs:1.451330595903
 O -0.00031744 0.00000000 -0.00024801
 H 0.00136423 0.00000000 0.00344691
 H 0.00367456 0.00000000 0.00048982
3 
Step: 11      Time_fs:1.5964636554933
 O -0.00033871 0.00000000 -0.00026463
 H 0.00148630 0.00000000 0.00363847
 H 0.00388996 0.00000000 0.00056192
3 
Step: 12      Time_fs:1.7415967150836
 O -0.00035770 0.00000000 -0.00027946
 H 0.00160423 0.00000000 0.00379821
 H 0.00407348 0.00000000 0.00063770
3 
Step: 13      Time_fs:1.8867297746739
 O -0.00037445 0.00000000 -0.00029255
 H 0.00171770 0.00000000 0.00392707
 H 0.00422597 0.00000000 0.00071663
3 
Step: 14      Time_fs:2.0318628342642002
 O -0.00038903 0.00000000 -0.00030395
 H 0.00182647 0.00000000 0.00402637
 H 0.00434863 0.00000000 0.00079815
3 
Step: 15      Time_fs:2.1769958938545
 O -0.00040152 0.00000000 -0.00031370
 H 0.00193033 0.00000000 0.00409764
 H 0.00444291 0.00000000 0.00088168
3 
Step: 16      Time_fs:2.3221289534448
 O -0.00041200 0.00000000 -0.00032189
 H 0.00202912 0.00000000 0.00414264
 H 0.00451047 0.00000000 0.00096666
3 
Step: 17      Time_fs:2.4672620130351
 O -0.00042058 0.00000000 -0.00032859
 H 0.00212275 -0.00000000 0.00416316
 H 0.00455303 0.00000000 0.00105253
3 
Step: 18      Time_fs:2.6123950726254
 O -0.00042736 0.00000000 -0.00033389
 H 0.00221115 -0.00000000 0.00416108
 H 0.00457240 0.00000000 0.00113881
3 
Step: 19      Time_fs:2.7575281322157
 O -0.00043247 0.00000000 -0.00033789
 H 0.00229431 -0.00000000 0.00413824
 H 0.00457035 0.00000000 0.00122503
3 
Step: 20      Time_fs:2.902661191806
 O -0.00043602 0.00000000 -0.00034066
 H 0.00237226 0.00000000 0.00409643
 H 0.00454865 -0.00000000 0.00131078
3 
Step: 21      Time_fs:3.0477942513963
 O -0.00043811 0.00000000 -0.00034229
 H 0.00244507 0.00000000 0.00403740
 H 0.00450899 -0.00000000 0.00139570
3 
Step: 22      Time_fs:3.1929273109866
 O -0.00043885 0.00000000 -0.00034286
 H 0.00251282 0.00000000 0.00396278
 H 0.00445297 -0.00000000 0.00147949
3 
Step: 23      Time_fs:3.3380603705769003
 O -0.00043834 -0.00000000 -0.00034247
 H 0.00257563 0.00000000 0.00387409
 H 0.00438211 -0.00000000 0.00156190
3 
Step: 24      Time_fs:3.4831934301672
 O -0.00043668 0.00000000 -0.00034118
 H 0.00263365 0.00000000 0.00377277
 H 0.00429784 -0.00000000 0.00164270
3 
Step: 25      Time_fs:3.6283264897575003
 O -0.00043398 0.00000000 -0.00033906
 H 0.00268701 0.00000000 0.00366014
 H 0.00420147 -0.00000000 0.00172173
3 
Step: 26      Time_fs:3.7734595493478
 O -0.00043030 0.00000000 -0.00033619
 H 0.00273590 0.00000000 0.00353741
 H 0.00409420 -0.00000000 0.00179886
3 
Step: 27      Time_fs:3.9185926089381002
 O -0.00042573 0.00000000 -0.00033262
 H 0.00278048 0.00000000 0.00340567
 H 0.00397716 -0.00000000 0.00187399
3 
Step: 28      Time_fs:4.0637256685284004
 O -0.00042036 0.00000000 -0.00032842
 H 0.00282094 0.00000000 0.00326594
 H 0.00385137 -0.00000000 0.00194705
3 
Step: 29      Time_fs:4.2088587281187
 O -0.00041424 0.00000000 -0.00032364
 H 0.00285746 0.00000000 0.00311912
 H 0.00371774 -0.00000000 0.00201800
3 
Step: 30      Time_fs:4.353991787709
 O -0.00040744 0.00000000 -0.00031833
 H 0.00289022 0.00000000 0.00296603
 H 0.00357713 -0.00000000 0.00208682
3 
Step: 31      Time_fs:4.4991248472993
 O -0.00040003 0.00000000 -0.00031254
 H 0.00291940 0.00000000 0.00280743
 H 0.00343031 -0.00000000 0.00215351
3 
Step: 32      Time_fs:4.6442579068896
 O -0.00039206 0.00000000 -0.00030631
 H 0.00294521 0.00000000 0.00264399
 H 0.00327796 -0.00000000 0.00221808
3 
Step: 33      Time_fs:4.789390966479901
 O -0.00038358 0.00000000 -0.00029968
 H 0.00296780 0.00000000 0.00247629
 H 0.00312071 -0.00000000 0.00228058
3 
Step: 34      Time_fs:4.9345240260702
 O -0.00037463 0.00000000 -0.00029269
 H 0.00298737 0.00000000 0.00230490
 H 0.00295914 -0.00000000 0.00234102
3 
Step: 35      Time_fs:5.0796570856605
 O -0.00036527 0.00000000 -0.00028538
 H 0.00300407 0.00000000 0.00213030
 H 0.00279377 -0.00000000 0.00239947
3 
Step: 36      Time_fs:5.2247901452508
 O -0.00035552 0.00000000 -0.00027776
 H 0.00301809 0.00000000 0.00195293
 H 0.00262506 -0.00000000 0.00245598
3 
Step: 37      Time_fs:5.3699232048411005
 O -0.00034543 0.00000000 -0.00026988
 H 0.00302958 0.00000000 0.00177319
 H 0.00245344 -0.00000000 0.00251062
3 
Step: 38      Time_fs:5.5150562644314
 O -0.00032345 0.00000000 -0.00025270
 H 0.00290310 0.00000000 0.00157541
 H 0.00223094 -0.00000000 0.00243574
3 
Step: 39      Time_fs:5.6601893240217
 O -0.00032436 0.00000000 -0.00025342
 H 0.00304561 0.00000000 0.00140798
 H 0.00210296 -0.00000000 0.00261452
3 
Step: 40      Time_fs:5.805322383612
 O -0.00031344 0.00000000 -0.00024489
 H 0.00305044 0.00000000 0.00122314
 H 0.00192477 -0.00000000 0.00266393
