3 
Step: 1      Time_fs:0.0967553730602
 O 0.00000026 0.00000000 0.00000021
 H -0.00005601 0.00000000 0.00006737
 H 0.00005182 0.00000000 -0.00007064
