3 
Step: 1      Time_fs:0.1451330595903
 O -0.00003771 0.00000000 -0.00002946
 H 0.00018186 0.00000000 0.00038415
 H 0.00041674 0.00000000 0.00008352
