3 
Step: 1      Time_fs:0.0967553730602
 O 0.00000026 0.00000000 0.00000021
 H -0.00005601 0.00000000 0.00006737
 H 0.00005182 0.00000000 -0.00007064
3 
Step: 2      Time_fs:0.1935107461204
 O 0.00000054 0.00000000 0.00000042
 H -0.00011194 0.00000000 0.00013438
 H 0.00010331 0.00000000 -0.00014112
3 
Step: 3      Time_fs:0.2902661191806
 O 0.00000085 0.00000000 0.00000067
 H -0.00016772 0.00000000 0.00020071
 H 0.00015417 0.00000000 -0.00021130
3 
Step: 4      Time_fs:0.3870214922408
 O 0.00000121 0.00000000 0.00000095
 H -0.00022329 0.00000000 0.00026599
 H 0.00020407 0.00000000 -0.00028101
3 
Step: 5      Time_fs:0.483776865301
 O 0.00000163 0.00000000 0.00000127
 H -0.00027856 0.00000000 0.00032991
 H 0.00025272 0.00000000 -0.00035010
3 
Step: 6      Time_fs:0.5805322383612
 O 0.00000212 0.00000000 0.00000166
 H -0.00033346 0.00000000 0.00039214
 H 0.00029982 0.00000000 -0.00041842
3 
Step: 7      Time_fs:0.6772876114214
 O 0.00000270 0.00000000 0.00000211
 H -0.00038793 0.00000000 0.00045237
 H 0.00034509 0.00000000 -0.00048584
3 
Step: 8      Time_fs:0.7740429844816
 O 0.00000338 0.00000000 0.00000264
 H -0.00044188 0.00000000 0.00051031
 H 0.00038825 0.00000000 -0.00055221
3 
Step: 9      Time_fs:0.8707983575418
 O 0.00000417 0.00000000 0.00000326
 H -0.00049526 0.00000000 0.00056568
 H 0.00042906 0.00000000 -0.00061739
3 
Step: 10      Time_fs:0.967553730602
 O 0.00000508 0.00000000 0.00000397
 H -0.00054798 0.00000000 0.00061822
 H 0.00046728 0.00000000 -0.00068126
3 
Step: 11      Time_fs:1.0643091036622
 O 0.00000613 0.00000000 0.00000479
 H -0.00059999 0.00000000 0.00066769
 H 0.00050270 0.00000000 -0.00074370
3 
Step: 12      Time_fs:1.1610644767224
 O 0.00000731 0.00000000 0.00000571
 H -0.00065122 0.00000000 0.00071387
 H 0.00053512 0.00000000 -0.00080458
3 
Step: 13      Time_fs:1.2578198497826
 O 0.00000865 0.00000000 0.00000675
 H -0.00070161 0.00000000 0.00075658
 H 0.00056437 0.00000000 -0.00086380
3 
Step: 14      Time_fs:1.3545752228428
 O 0.00001013 0.00000000 0.00000791
 H -0.00075108 0.00000000 0.00079564
 H 0.00059030 0.00000000 -0.00092126
3 
Step: 15      Time_fs:1.451330595903
 O 0.00001177 0.00000000 0.00000920
 H -0.00079959 0.00000000 0.00083090
 H 0.00061277 0.00000000 -0.00097685
3 
Step: 16      Time_fs:1.5480859689632
 O 0.00001357 0.00000000 0.00001060
 H -0.00084707 0.00000000 0.00086223
 H 0.00063169 0.00000000 -0.00103050
3 
Step: 17      Time_fs:1.6448413420234
 O 0.00001553 0.00000000 0.00001213
 H -0.00089347 0.00000000 0.00088953
 H 0.00064695 0.00000000 -0.00108213
3 
Step: 1      Time_fs:0.0967553730602
 O 0.00000026 0.00000000 0.00000021
 H -0.00005601 0.00000000 0.00006737
 H 0.00005182 0.00000000 -0.00007064
3 
Step: 2      Time_fs:0.1935107461204
 O 0.00000054 0.00000000 0.00000042
 H -0.00011194 0.00000000 0.00013438
 H 0.00010331 0.00000000 -0.00014112
