3 
Step: 1      Time_fs:0.1451330595903
 O -0.00002382 0.00000000 -0.00001861
 H -0.00000082 0.00000000 0.00039074
 H 0.00037893 0.00000000 -0.00009532
3 
Step: 2      Time_fs:0.2902661191806
 O -0.00004744 0.00000000 -0.00003706
 H -0.00000110 0.00000000 0.00077747
 H 0.00075411 0.00000000 -0.00018916
3 
Step: 3      Time_fs:0.4353991787709
 O -0.00007066 0.00000000 -0.00005520
 H -0.00000033 0.00000000 0.00115632
 H 0.00112190 0.00000000 -0.00028006
