3 
Step: 1      Time_fs:0.1451330595903
 O -0.00003973 -0.00000000 -0.00002738
 H 0.00019228 -0.00000000 0.00034586
 H 0.00043838 0.00000000 0.00008881
3 
Step: 2      Time_fs:0.2902661191806
 O -0.00007909 -0.00000000 -0.00005451
 H 0.00038415 -0.00000000 0.00068663
 H 0.00087128 0.00000000 0.00017856
3 
Step: 3      Time_fs:0.4353991787709
 O -0.00011772 -0.00000000 -0.00008111
 H 0.00057516 -0.00000000 0.00101740
 H 0.00129339 0.00000000 0.00027012
3 
Step: 4      Time_fs:0.5805322383612
 O -0.00015528 -0.00000000 -0.00010696
 H 0.00076487 -0.00000000 0.00133356
 H 0.00169982 0.00000000 0.00036424
