3 
Step: 1      Time_fs:0.0967553730602
 O -0.00000025 0.00000000 -0.00000020
 H 0.00005606 0.00000000 -0.00006763
 H -0.00005206 0.00000000 0.00007076
3 
Step: 2      Time_fs:0.1935107461204
 O -0.00000048 0.00000000 -0.00000038
 H 0.00011224 0.00000000 -0.00013578
 H -0.00010460 0.00000000 0.00014175
3 
Step: 3      Time_fs:0.2902661191806
 O -0.00000067 0.00000000 -0.00000052
 H 0.00016859 0.00000000 -0.00020482
 H -0.00015795 0.00000000 0.00021314
3 
Step: 4      Time_fs:0.3870214922408
 O -0.00000080 0.00000000 -0.00000063
 H 0.00022521 0.00000000 -0.00027510
 H -0.00021245 0.00000000 0.00028508
3 
Step: 5      Time_fs:0.483776865301
 O -0.00000086 0.00000000 -0.00000068
 H 0.00028217 0.00000000 -0.00034701
 H -0.00026844 0.00000000 0.00035773
3 
Step: 6      Time_fs:0.5805322383612
 O -0.00000083 0.00000000 -0.00000065
 H 0.00033953 0.00000000 -0.00042093
 H -0.00032629 0.00000000 0.00043128
3 
Step: 7      Time_fs:0.6772876114214
 O -0.00000069 0.00000000 -0.00000054
 H 0.00039738 0.00000000 -0.00049727
 H -0.00038636 0.00000000 0.00050588
3 
Step: 8      Time_fs:0.7740429844816
 O -0.00000042 0.00000000 -0.00000033
 H 0.00045580 0.00000000 -0.00057646
 H -0.00044907 0.00000000 0.00058172
3 
Step: 9      Time_fs:0.8707983575418
 O -0.00000000 0.00000000 -0.00000000
 H 0.00051487 0.00000000 -0.00065895
 H -0.00051482 0.00000000 0.00065899
3 
Step: 10      Time_fs:0.967553730602
 O 0.00000059 0.00000000 0.00000046
 H 0.00057466 0.00000000 -0.00074523
 H -0.00058407 0.00000000 0.00073787
