[Molden Format]
[Title]
Written by TeraChem
[Atoms] Angs
O   1   8      0.03187   -0.06464   -0.65293
O   2   8     -0.04492    0.08595    3.54631
H   3   1      0.94236   -0.05949   -0.69457
H   4   1     -0.47536   -0.82073   -0.72121
H   5   1     -0.26628    0.49325    0.05223
H   6   1     -0.02821    0.16769    4.44276
[GTO]
    1 0
 s    6 1.00
         5484.671700             0.001831
          825.234950             0.013950
          188.046960             0.068445
           52.964500             0.232714
           16.897570             0.470193
            5.799635             0.358521
 s    3 1.00
           15.539616            -0.110778
            3.599934            -0.148026
            1.013762             1.130767
 s    1 1.00
            0.270006             1.000000
 p    3 1.00
           15.539616             0.070874
            3.599934             0.339753
            1.013762             0.727159
 p    1 1.00
            0.270006             1.000000

    2 0
 s    6 1.00
         5484.671700             0.001831
          825.234950             0.013950
          188.046960             0.068445
           52.964500             0.232714
           16.897570             0.470193
            5.799635             0.358521
 s    3 1.00
           15.539616            -0.110778
            3.599934            -0.148026
            1.013762             1.130767
 s    1 1.00
            0.270006             1.000000
 p    3 1.00
           15.539616             0.070874
            3.599934             0.339753
            1.013762             0.727159
 p    1 1.00
            0.270006             1.000000

    3 0
 s    3 1.00
           18.731137             0.033495
            2.825394             0.234727
            0.640122             0.813757
 s    1 1.00
            0.161278             1.000000

    4 0
 s    3 1.00
           18.731137             0.033495
            2.825394             0.234727
            0.640122             0.813757
 s    1 1.00
            0.161278             1.000000

    5 0
 s    3 1.00
           18.731137             0.033495
            2.825394             0.234727
            0.640122             0.813757
 s    1 1.00
            0.161278             1.000000

    6 0
 s    3 1.00
           18.731137             0.033495
            2.825394             0.234727
            0.640122             0.813757
 s    1 1.00
            0.161278             1.000000

[MO]
 Ene= 0.0
 Spin= Alpha
 Occup=     2.0000
    1    0.00008
    2    0.00014
    3   -0.00146
    4   -0.00007
    5    0.00013
    6    0.00012
    7    0.00033
    8   -0.00063
    9   -0.00047
   10   -0.21586
   11    0.49076
   12    0.47382
   13    0.00233
   14    0.01144
   15    0.12404
   16    0.00089
   17    0.00440
   18    0.04621
   19   -0.00002
   20   -0.00020
   21   -0.00002
   22   -0.00023
   23   -0.00015
   24    0.00248
   25    0.19565
   26   -0.00672
 Ene= 0.0
 Spin= Alpha
 Occup=     2.0000
    1    0.21914
    2   -0.49893
    3   -0.46939
    4   -0.01567
    5    0.02756
    6   -0.05018
    7   -0.00521
    8    0.00932
    9   -0.02388
   10    0.00002
   11   -0.00006
   12    0.00030
   13   -0.00001
   14    0.00001
   15   -0.00018
   16    0.00003
   17   -0.00000
   18    0.00104
   19   -0.11952
   20    0.02160
   21   -0.11845
   22    0.02150
   23   -0.10870
   24    0.02028
   25   -0.00027
   26   -0.00061
 Ene= 0.0
 Spin= Alpha
 Occup=     2.0000
    1   -0.00000
    2    0.00001
    3   -0.00002
    4   -0.00000
    5    0.00000
    6    0.00000
    7    0.00001
    8   -0.00001
    9   -0.00001
   10    0.99587
   11    0.02113
   12   -0.00684
   13    0.00003
   14    0.00016
   15    0.00170
   16   -0.00003
   17   -0.00016
   18   -0.00178
   19    0.00000
   20   -0.00001
   21    0.00000
   22   -0.00001
   23   -0.00000
   24    0.00003
   25   -0.00016
   26    0.00282
 Ene= 0.0
 Spin= Alpha
 Occup=     2.0000
    1   -0.99569
    2   -0.02273
    3    0.00905
    4   -0.00022
    5    0.00040
    6   -0.00070
    7    0.00018
    8   -0.00032
    9    0.00072
   10   -0.00000
   11   -0.00000
   12   -0.00003
   13    0.00000
   14   -0.00000
   15    0.00003
   16   -0.00000
   17    0.00000
   18   -0.00009
   19   -0.00004
   20   -0.00167
   21   -0.00004
   22   -0.00166
   23   -0.00017
   24   -0.00148
   25    0.00003
   26    0.00005
 Ene= 0.0
 Spin= Alpha
 Occup=     2.0000
    1    0.00083
    2   -0.00201
    3   -0.00253
    4    0.48062
    5    0.27065
    6    0.01755
    7    0.25736
    8    0.14540
    9    0.00965
   10    0.00000
   11   -0.00001
   12   -0.00001
   13    0.00001
   14    0.00001
   15   -0.00003
   16    0.00008
   17    0.00005
   18   -0.00006
   19    0.23280
   20    0.03611
   21   -0.23963
   22   -0.03711
   23    0.00855
   24    0.00125
   25   -0.00001
   26    0.00002
 Ene= 0.0
 Spin= Alpha
 Occup=     2.0000
    1   -0.00259
    2    0.00876
    3   -0.00469
    4    0.23227
    5   -0.39060
    6   -0.32117
    7    0.13297
    8   -0.22481
    9   -0.18679
   10   -0.00002
   11    0.00007
   12    0.00015
   13    0.00005
   14   -0.00004
   15    0.00088
   16    0.00007
   17   -0.00006
   18    0.00148
   19    0.13522
   20    0.02605
   21    0.12078
   22    0.02311
   23   -0.26469
   24   -0.04977
   25    0.00038
   26   -0.00048
 Ene= 0.0
 Spin= Alpha
 Occup=     2.0000
    1    0.00014
    2    0.00038
    3   -0.00330
    4    0.00018
    5   -0.00049
    6   -0.00074
    7    0.00139
    8   -0.00325
    9   -0.00330
   10    0.00041
   11   -0.00109
   12   -0.00152
   13   -0.09809
   14    0.62198
   15   -0.05271
   16   -0.08080
   17    0.51219
   18   -0.04417
   19    0.00021
   20   -0.00210
   21    0.00033
   22   -0.00319
   23   -0.00031
   24    0.01004
   25    0.00115
   26    0.00089
 Ene= 0.0
 Spin= Alpha
 Occup=     2.0000
    1   -0.00002
    2    0.00009
    3    0.00007
    4    0.00017
    5    0.00023
    6   -0.00029
    7    0.00107
    8    0.00013
    9   -0.00073
   10   -0.00012
   11    0.00031
   12    0.00045
   13   -0.62416
   14   -0.09676
   15    0.01983
   16   -0.51400
   17   -0.07966
   18    0.01649
   19    0.00024
   20   -0.00245
   21   -0.00014
   22    0.00104
   23    0.00001
   24    0.00124
   25   -0.00032
   26   -0.00027
 Ene= 0.0
 Spin= Alpha
 Occup=     1.9998
    1   -0.03182
    2    0.08413
    3    0.09618
    4   -0.17011
    5    0.33683
    6   -0.52878
    7   -0.12391
    8    0.24542
    9   -0.38861
   10   -0.00009
   11    0.00022
   12    0.00092
   13    0.00047
   14   -0.00017
   15   -0.00005
   16    0.00035
   17    0.00004
   18    0.00208
   19   -0.03732
   20   -0.00555
   21   -0.03789
   22   -0.00572
   23   -0.03320
   24   -0.00371
   25   -0.00034
   26   -0.00141
 Ene= 0.0
 Spin= Alpha
 Occup=     1.0000
    1    0.00037
    2    0.00122
    3   -0.00936
    4    0.00051
    5   -0.00089
    6   -0.00282
    7    0.00318
    8   -0.00601
    9   -0.00604
   10   -0.07835
   11    0.17088
   12    0.35137
   13   -0.00937
   14   -0.04536
   15   -0.52427
   16   -0.00538
   17   -0.02574
   18   -0.30597
   19    0.00034
   20   -0.00285
   21    0.00033
   22   -0.00297
   23   -0.00219
   24    0.02009
   25   -0.30164
   26   -0.14763
 Ene= 0.0
 Spin= Alpha
 Occup=     0.0002
    1   -0.10420
    2    0.18887
    3    1.32379
    4    0.01793
    5   -0.03532
    6    0.08349
    7    0.03781
    8   -0.07401
    9    0.14813
   10   -0.00466
   11    0.01180
   12    0.03734
   13   -0.00056
   14    0.00291
   15   -0.00943
   16    0.00035
   17    0.00345
   18    0.02960
   19   -0.08717
   20   -0.74345
   21   -0.08915
   22   -0.74708
   23   -0.08666
   24   -0.68578
   25   -0.01317
   26   -0.05342
 Ene= 0.0
 Spin= Alpha
 Occup=     0.0000
    1   -0.03904
    2    1.73986
    3   -3.17906
    4   -0.00153
    5    0.00265
    6    0.06493
    7   -0.04283
    8    0.04556
    9   -0.38443
   10    0.00209
   11   -0.10347
   12    0.20797
   13   -0.00372
   14    0.00170
   15   -0.08962
   16    0.00633
   17    0.00529
   18    0.19817
   19    0.35294
   20    0.52558
   21    0.33189
   22    0.51949
   23    0.46355
   24    0.51648
   25   -0.05706
   26   -0.13359
 Ene= 0.0
 Spin= Alpha
 Occup=     0.0000
    1    0.00293
    2   -0.14739
    3    0.26799
    4   -0.00883
    5    0.01633
    6    0.00404
    7    0.01924
    8   -0.03188
    9    0.01840
   10    0.07263
   11   -1.56413
   12    2.36382
   13   -0.00730
   14   -0.03459
   15   -0.38904
   16    0.01880
   17    0.09060
   18    1.00580
   19   -0.03359
   20   -0.06052
   21   -0.03136
   22   -0.05956
   23   -0.06631
   24    0.01577
   25   -0.20867
   26   -1.17127
 Ene= 0.0
 Spin= Alpha
 Occup=     0.0000
    1   -0.00233
    2    0.08726
    3   -0.13277
    4    0.26055
    5   -0.48968
    6   -0.37817
    7   -0.37870
    8    0.71394
    9    0.53575
   10    0.03877
   11   -0.40419
   12    0.22097
   13    0.03469
   14   -0.01320
   15    0.66411
   16   -0.04053
   17    0.00679
   18   -0.83401
   19   -0.08254
   20    0.44657
   21   -0.08354
   22    0.45383
   23    0.30056
   24   -0.93727
   25    0.01727
   26    0.27477
 Ene= 0.0
 Spin= Alpha
 Occup=     0.0000
    1   -0.00013
    2    0.00177
    3   -0.00336
    4    0.91548
    5    0.48107
    6    0.01126
    7   -1.30652
    8   -0.69001
    9   -0.01752
   10    0.00008
   11   -0.00062
   12    0.00026
   13    0.02281
   14    0.01027
   15   -0.00102
   16   -0.02511
   17   -0.01136
   18    0.00037
   19   -0.28627
   20    1.08375
   21    0.27749
   22   -1.06945
   23    0.00380
   24   -0.00859
   25    0.00111
   26   -0.00030
 Ene= 0.0
 Spin= Alpha
 Occup=     0.0000
    1   -0.01234
    2    0.06383
    3   -0.01140
    4    0.21483
    5   -0.40421
    6   -0.31348
    7   -0.29187
    8    0.58056
    9    0.49920
   10    0.00621
   11    0.17253
   12   -0.30727
   13    0.02664
   14   -0.17939
   15   -0.61824
   16   -0.03971
   17    0.14278
   18    0.09643
   19   -0.18869
   20    0.36844
   21   -0.16905
   22    0.37641
   23    0.01072
   24   -0.58124
   25    0.95162
   26   -0.50292
 Ene= 0.0
 Spin= Alpha
 Occup=     0.0000
    1   -0.00955
    2    0.04244
    3    0.00079
    4    0.04106
    5   -0.08031
    6   -0.06607
    7   -0.04788
    8    0.12165
    9    0.13639
   10   -0.02967
   11    0.13640
   12    0.08210
   13    0.38954
   14   -0.74864
   15    0.01339
   16   -0.40736
   17    0.83859
   18    0.42450
   19   -0.10359
   20    0.09697
   21   -0.08532
   22    0.10169
   23   -0.10430
   24   -0.05136
   25   -0.63876
   26    0.14738
 Ene= 0.0
 Spin= Alpha
 Occup=     0.0000
    1   -0.00040
    2    0.00171
    3    0.00017
    4   -0.02369
    5   -0.01475
    6   -0.00172
    7    0.04114
    8    0.02536
    9    0.00457
   10    0.00271
   11   -0.01153
   12   -0.00923
   13    0.86616
   14    0.42580
   15   -0.05164
   16   -0.92444
   17   -0.45787
   18    0.01324
   19   -0.00592
   20   -0.01998
   21   -0.00115
   22    0.02571
   23   -0.00527
   24    0.00041
   25    0.06078
   26   -0.01395
 Ene= 0.0
 Spin= Alpha
 Occup=     0.0000
    1   -0.02816
    2    0.12539
    3    0.00385
    4    0.17945
    5   -0.34073
    6   -0.25323
    7   -0.21727
    8    0.50027
    9    0.48539
   10   -0.04526
   11    0.22771
   12    0.09498
   13   -0.17918
   14    0.40148
   15   -0.16724
   16    0.20207
   17   -0.37023
   18    0.79774
   19   -0.32191
   20    0.35148
   21   -0.26215
   22    0.36115
   23   -0.27154
   24   -0.29023
   25   -0.89404
   26    0.18301
 Ene= 0.0
 Spin= Alpha
 Occup=     0.0000
    1    0.07212
    2   -0.41004
    3    0.13448
    4    0.08900
    5   -0.08644
    6   -0.17878
    7   -0.68121
    8   -0.20924
    9   -0.06808
   10   -0.01845
   11    0.11331
   12    0.00871
   13   -0.00547
   14    0.02993
   15   -0.16867
   16    0.00884
   17   -0.01325
   18    0.35512
   19    1.02469
   20   -0.21819
   21   -0.00458
   22   -0.20006
   23    0.85662
   24   -0.55843
   25   -0.24898
   26    0.00914
 Ene= 0.0
 Spin= Alpha
 Occup=     0.0000
    1    0.04207
    2   -0.22585
    3    0.05751
    4   -0.03275
    5   -0.07262
    6   -0.09539
    7    1.01781
    8    0.64591
    9   -0.00820
   10   -0.00881
   11    0.05420
   12    0.00378
   13   -0.01079
   14    0.00887
   15   -0.08295
   16    0.01249
   17   -0.00083
   18    0.16975
   19   -0.56253
   20   -0.10749
   21    1.22904
   22   -0.17265
   23    0.45850
   24   -0.30034
   25   -0.11650
   26    0.00352
 Ene= 0.0
 Spin= Alpha
 Occup=     0.0000
    1    0.01261
    2   -0.05788
    3   -0.10561
    4    0.24536
    5   -0.48585
    6    0.77289
    7   -0.23825
    8    0.49146
    9   -0.91840
   10   -0.00142
   11    0.00666
   12    0.00527
   13    0.00196
   14   -0.00340
   15   -0.01859
   16   -0.00158
   17    0.00490
   18    0.03606
   19   -0.04721
   20    0.10324
   21   -0.03537
   22    0.10250
   23    0.09920
   24    0.05462
   25   -0.02245
   26   -0.00126
 Ene= 0.0
 Spin= Alpha
 Occup=     0.0000
    1    0.01495
    2   -0.00937
    3   -0.15961
    4    0.04706
    5   -0.07910
    6    0.00848
    7   -0.45842
    8    0.75990
    9    0.45734
   10    0.00313
   11   -0.01944
   12    0.00114
   13    0.00377
   14   -0.00709
   15    0.03628
   16   -0.00391
   17    0.00400
   18   -0.05895
   19    0.73213
   20   -0.22769
   21    0.66889
   22   -0.21804
   23   -0.92380
   24    0.30900
   25    0.03650
   26   -0.00369
 Ene= 0.0
 Spin= Alpha
 Occup=     0.0000
    1    0.00372
    2   -0.01298
    3   -0.02428
    4    0.04009
    5   -0.07398
    6   -0.06094
    7    0.08621
    8   -0.15928
    9   -0.13633
   10   -0.06340
   11    0.07682
   12    0.97750
   13    0.00573
   14    0.01996
   15    0.25255
   16    0.01070
   17    0.05315
   18    0.58112
   19   -0.01400
   20   -0.20899
   21   -0.01335
   22   -0.20836
   23    0.04509
   24    0.47700
   25   -0.02521
   26   -1.63799
 Ene= 0.0
 Spin= Alpha
 Occup=     0.0000
    1    0.00055
    2   -0.00026
    3   -0.01529
    4   -0.30301
    5   -0.10596
    6    0.03000
    7   -0.77734
    8   -0.28412
    9    0.06827
   10   -0.00435
   11    0.00747
   12    0.05562
   13   -0.00282
   14    0.00149
   15    0.00827
   16    0.00123
   17    0.00351
   18    0.03603
   19    0.07160
   20    1.53198
   21   -0.05121
   22   -1.23443
   23   -0.02049
   24   -0.28280
   25   -0.00565
   26   -0.09051
 Ene= 0.0
 Spin= Alpha
 Occup=     0.0000
    1   -0.00334
    2    0.00436
    3    0.06641
    4    0.06844
    5   -0.25244
    6   -0.17990
    7    0.14913
    8   -0.60397
    9   -0.42315
   10    0.02299
   11   -0.03998
   12   -0.29210
   13    0.00179
   14   -0.01423
   15   -0.04165
   16   -0.00366
   17   -0.01709
   18   -0.19009
   19   -0.04340
   20   -0.50115
   21   -0.06520
   22   -1.02525
   23    0.09969
   24    1.46844
   25    0.03006
   26    0.47553
