[Molden Format]
[Title]
Written by TeraChem
[Atoms] Angs
O   1   8      0.00000    0.00000    0.00000
O   2   8      0.00000    0.00000    2.84936
H   3   1      0.84236    0.00000   -0.40433
H   4   1     -0.46328   -0.71670   -0.38060
H   5   1     -0.01778    0.04583    1.91231
H   6   1     -0.39622    0.79111    3.14532
[GTO]
    1 0
 s    6 1.00
         5484.671700             0.001831
          825.234950             0.013950
          188.046960             0.068445
           52.964500             0.232714
           16.897570             0.470193
            5.799635             0.358521
 s    3 1.00
           15.539616            -0.110778
            3.599934            -0.148026
            1.013762             1.130767
 s    1 1.00
            0.270006             1.000000
 p    3 1.00
           15.539616             0.070874
            3.599934             0.339753
            1.013762             0.727159
 p    1 1.00
            0.270006             1.000000
 d    1 1.00
            0.800000             1.000000

    2 0
 s    6 1.00
         5484.671700             0.001831
          825.234950             0.013950
          188.046960             0.068445
           52.964500             0.232714
           16.897570             0.470193
            5.799635             0.358521
 s    3 1.00
           15.539616            -0.110778
            3.599934            -0.148026
            1.013762             1.130767
 s    1 1.00
            0.270006             1.000000
 p    3 1.00
           15.539616             0.070874
            3.599934             0.339753
            1.013762             0.727159
 p    1 1.00
            0.270006             1.000000
 d    1 1.00
            0.800000             1.000000

    3 0
 s    3 1.00
           18.731137             0.033495
            2.825394             0.234727
            0.640122             0.813757
 s    1 1.00
            0.161278             1.000000
 p    1 1.00
            1.100000             1.000000

    4 0
 s    3 1.00
           18.731137             0.033495
            2.825394             0.234727
            0.640122             0.813757
 s    1 1.00
            0.161278             1.000000
 p    1 1.00
            1.100000             1.000000

    5 0
 s    3 1.00
           18.731137             0.033495
            2.825394             0.234727
            0.640122             0.813757
 s    1 1.00
            0.161278             1.000000
 p    1 1.00
            1.100000             1.000000

    6 0
 s    3 1.00
           18.731137             0.033495
            2.825394             0.234727
            0.640122             0.813757
 s    1 1.00
            0.161278             1.000000
 p    1 1.00
            1.100000             1.000000

[MO]
 Ene= 0.0
 Spin= Alpha
 Occup=     2.0000
    1   -0.00004
    2    0.00009
    3    0.00023
    4    0.46180
    5    0.25424
    6   -0.00615
    7    0.24898
    8    0.13708
    9   -0.00306
   10    0.01486
   11   -0.01538
   12    0.00055
   13   -0.01147
   14   -0.01621
   15   -0.00861
   16   -0.00015
   17    0.00039
   18    0.00061
   19    0.00827
   20   -0.00513
   21   -0.01232
   22    0.00671
   23   -0.00147
   24   -0.00661
   25   -0.00027
   26   -0.00042
   27    0.00068
   28    0.00046
   29   -0.00040
   30   -0.00061
   31    0.23171
   32    0.09942
   33   -0.01824
   34    0.00689
   35    0.01449
   36   -0.23285
   37   -0.09957
   38   -0.00449
   39   -0.01942
   40   -0.01403
   41    0.00653
   42    0.00252
   43    0.00068
   44    0.00007
   45    0.00063
   46   -0.00679
   47   -0.00296
   48   -0.00024
   49    0.00060
   50   -0.00005
 Ene= 0.0
 Spin= Alpha
 Occup=     2.0000
    1    0.00118
    2   -0.00072
    3   -0.01209
    4    0.02312
    5   -0.01413
    6   -0.08084
    7    0.01236
    8   -0.00773
    9   -0.05529
   10    0.00142
   11    0.00077
   12   -0.00128
   13   -0.00041
   14   -0.00181
   15    0.00232
   16    0.00104
   17   -0.00185
   18   -0.01081
   19   -0.12834
   20    0.25295
   21    0.43220
   22   -0.06752
   23    0.13318
   24    0.23264
   25    0.00529
   26    0.02027
   27   -0.02372
   28   -0.01157
   29   -0.00544
   30    0.01118
   31    0.02763
   32    0.00602
   33   -0.00325
   34   -0.00037
   35   -0.00017
   36    0.01474
   37    0.00049
   38    0.00179
   39    0.00144
   40   -0.00106
   41   -0.23257
   42   -0.08848
   43   -0.00382
   44    0.00793
   45   -0.02217
   46    0.23587
   47    0.10097
   48    0.01019
   49   -0.02043
   50    0.00161
 Ene= 0.0
 Spin= Alpha
 Occup=     2.0000
    1   -0.17096
    2    0.39198
    3    0.33165
    4    0.02390
    5   -0.04511
    6   -0.04886
    7    0.00714
    8   -0.01350
    9   -0.01305
   10    0.00520
   11    0.00451
   12    0.00467
   13    0.00071
   14   -0.00122
   15    0.00219
   16    0.12874
   17   -0.29315
   18   -0.25446
   19    0.02054
   20   -0.04149
   21    0.02649
   22    0.00698
   23   -0.01415
   24    0.00958
   25   -0.00185
   26   -0.00421
   27   -0.00420
   28    0.00180
   29   -0.00013
   30    0.00032
   31    0.11575
   32    0.00320
   33   -0.01966
   34   -0.00142
   35    0.00824
   36    0.11572
   37    0.00312
   38    0.01198
   39    0.01594
   40    0.00765
   41   -0.08107
   42    0.00318
   43    0.00035
   44   -0.00053
   45   -0.01594
   46   -0.09220
   47   -0.00510
   48   -0.00672
   49    0.01340
   50    0.00649
 Ene= 0.0
 Spin= Alpha
 Occup=     2.0000
    1    0.12822
    2   -0.29126
    3   -0.25295
    4   -0.01730
    5    0.03263
    6    0.02975
    7   -0.00481
    8    0.00900
    9    0.00073
   10   -0.00250
   11   -0.00200
   12   -0.00386
   13   -0.00051
   14    0.00077
   15   -0.00138
   16    0.16932
   17   -0.38304
   18   -0.33646
   19    0.02629
   20   -0.05313
   21    0.04104
   22    0.00873
   23   -0.01771
   24    0.01777
   25   -0.00127
   26   -0.00417
   27   -0.00564
   28    0.00221
   29   -0.00028
   30    0.00063
   31   -0.08478
   32   -0.00385
   33    0.01484
   34    0.00109
   35   -0.00602
   36   -0.08479
   37   -0.00388
   38   -0.00906
   39   -0.01203
   40   -0.00559
   41   -0.11738
   42    0.00504
   43    0.00051
   44   -0.00080
   45   -0.02097
   46   -0.11880
   47   -0.00746
   48   -0.00885
   49    0.01765
   50    0.00857
 Ene= 0.0
 Spin= Alpha
 Occup=     2.0000
    1    0.99464
    2    0.02099
    3    0.00477
    4    0.00035
    5   -0.00066
    6   -0.00074
    7   -0.00003
    8    0.00005
    9    0.00024
   10   -0.00399
   11   -0.00404
   12   -0.00406
   13    0.00005
   14   -0.00004
   15    0.00006
   16    0.00041
   17   -0.00010
   18    0.00051
   19    0.00000
   20   -0.00000
   21    0.00002
   22    0.00001
   23   -0.00001
   24   -0.00020
   25   -0.00007
   26   -0.00008
   27   -0.00004
   28    0.00000
   29    0.00000
   30   -0.00001
   31    0.00010
   32   -0.00036
   33    0.00025
   34    0.00001
   35   -0.00013
   36    0.00010
   37   -0.00036
   38   -0.00015
   39   -0.00020
   40   -0.00013
   41   -0.00006
   42   -0.00054
   43   -0.00000
   44    0.00000
   45    0.00002
   46   -0.00000
   47    0.00006
   48    0.00001
   49   -0.00002
   50   -0.00000
 Ene= 0.0
 Spin= Alpha
 Occup=     2.0000
    1    0.00043
    2    0.00001
    3    0.00002
    4   -0.00000
    5    0.00001
    6   -0.00001
    7    0.00001
    8   -0.00002
    9   -0.00001
   10   -0.00003
   11   -0.00002
   12   -0.00002
   13   -0.00000
   14    0.00000
   15   -0.00000
   16   -0.99467
   17   -0.02110
   18   -0.00449
   19    0.00050
   20   -0.00100
   21    0.00063
   22   -0.00004
   23    0.00008
   24    0.00000
   25    0.00401
   26    0.00387
   27    0.00381
   28    0.00011
   29    0.00002
   30   -0.00004
   31    0.00001
   32   -0.00002
   33   -0.00001
   34    0.00000
   35   -0.00000
   36    0.00001
   37   -0.00003
   38    0.00000
   39    0.00001
   40   -0.00000
   41   -0.00004
   42    0.00047
   43   -0.00000
   44    0.00000
   45    0.00036
   46    0.00001
   47    0.00036
   48    0.00017
   49   -0.00035
   50   -0.00016
 Ene= 0.0
 Spin= Alpha
 Occup=     2.0000
    1    0.00560
    2   -0.01770
    3   -0.00181
    4    0.01574
    5   -0.02910
    6   -0.02593
    7    0.01136
    8   -0.02104
    9   -0.02055
   10   -0.00233
   11   -0.00175
   12    0.00099
   13   -0.00052
   14   -0.00102
   15    0.00192
   16    0.06690
   17   -0.15817
   18   -0.27379
   19   -0.20998
   20    0.42483
   21   -0.32881
   22   -0.14351
   23    0.29056
   24   -0.23604
   25   -0.00592
   26    0.01389
   27    0.00616
   28   -0.01502
   29    0.00831
   30   -0.01693
   31    0.00716
   32   -0.01307
   33   -0.00071
   34   -0.00102
   35   -0.00040
   36    0.00704
   37   -0.01349
   38    0.00123
   39    0.00004
   40   -0.00044
   41    0.13302
   42    0.02810
   43   -0.00572
   44    0.01139
   45    0.01075
   46    0.14345
   47    0.06613
   48    0.00221
   49   -0.00424
   50   -0.01657
 Ene= 0.0
 Spin= Alpha
 Occup=     1.9998
    1    0.03331
    2   -0.07440
    3   -0.14068
    4   -0.06736
    5    0.10291
    6   -0.59467
    7   -0.06078
    8    0.09589
    9   -0.44300
   10   -0.00181
   11   -0.00628
   12    0.01537
   13    0.00447
   14   -0.00610
   15    0.01179
   16   -0.01410
   17    0.02732
   18    0.09101
   19    0.02186
   20   -0.04313
   21   -0.09870
   22    0.00874
   23   -0.01706
   24   -0.07567
   25   -0.00257
   26   -0.00491
   27    0.00139
   28    0.00181
   29    0.00141
   30   -0.00289
   31    0.07919
   32    0.02111
   33   -0.01303
   34    0.00359
   35   -0.01246
   36    0.07920
   37    0.02143
   38    0.00362
   39    0.01272
   40   -0.01276
   41    0.02070
   42   -0.06964
   43    0.00038
   44   -0.00092
   45    0.00715
   46   -0.04146
   47   -0.03377
   48   -0.00153
   49    0.00308
   50   -0.00141
 Ene= 0.0
 Spin= Alpha
 Occup=     1.9997
    1    0.05398
    2   -0.12163
    3   -0.24912
    4    0.28446
    5   -0.52005
    6   -0.05318
    7    0.20617
    8   -0.37598
    9   -0.00758
   10    0.00349
   11    0.01537
   12   -0.00485
   13   -0.01030
   14   -0.00702
   15    0.01268
   16   -0.00617
   17    0.00976
   18    0.03717
   19    0.01858
   20   -0.03557
   21   -0.01803
   22    0.01369
   23   -0.02579
   24   -0.01599
   25   -0.00204
   26   -0.00439
   27    0.00032
   28    0.00185
   29   -0.00018
   30    0.00024
   31    0.11176
   32    0.06166
   33   -0.00697
   34   -0.01510
   35    0.00603
   36    0.11174
   37    0.06175
   38    0.01664
   39   -0.00215
   40    0.00560
   41    0.00645
   42   -0.02018
   43    0.00125
   44   -0.00232
   45    0.00185
   46   -0.01943
   47   -0.00761
   48   -0.00048
   49    0.00098
   50    0.00041
 Ene= 0.0
 Spin= Alpha
 Occup=     1.0000
    1   -0.00008
    2    0.00022
    3    0.00034
    4   -0.00877
    5   -0.00370
    6    0.00008
    7    0.00111
    8    0.00108
    9   -0.00030
   10    0.00035
   11   -0.00030
   12    0.00000
   13   -0.00021
   14    0.00086
   15    0.00042
   16    0.00002
   17    0.00004
   18   -0.00044
   19    0.57374
   20    0.28606
   21    0.00321
   22    0.44505
   23    0.22193
   24    0.00268
   25   -0.01492
   26    0.01513
   27   -0.00011
   28    0.01316
   29   -0.01206
   30   -0.00589
   31   -0.00713
   32    0.00079
   33    0.00043
   34   -0.00027
   35   -0.00057
   36    0.00677
   37   -0.00111
   38   -0.00008
   39    0.00053
   40    0.00052
   41   -0.00002
   42    0.00061
   43    0.01741
   44    0.00868
   45    0.00011
   46   -0.00003
   47    0.00001
   48    0.01870
   49    0.00934
   50    0.00010
 Ene= 0.0
 Spin= Alpha
 Occup=     0.0005
    1   -0.09971
    2    0.09986
    3    1.29458
    4    0.06153
    5   -0.11439
    6   -0.06227
    7    0.14138
    8   -0.26592
    9   -0.19825
   10   -0.04700
   11   -0.04615
   12   -0.05185
   13   -0.00035
   14   -0.00406
   15    0.00737
   16   -0.04519
   17    0.04756
   18    0.59008
   19   -0.02513
   20    0.05046
   21   -0.06127
   22   -0.06990
   23    0.14143
   24   -0.11600
   25   -0.02236
   26   -0.01637
   27   -0.01902
   28   -0.00463
   29    0.00099
   30   -0.00219
   31   -0.06038
   32   -0.90578
   33    0.00043
   34    0.00084
   35    0.00106
   36   -0.06036
   37   -0.90540
   38   -0.00090
   39    0.00006
   40    0.00094
   41   -0.02673
   42   -0.44904
   43    0.00070
   44   -0.00135
   45    0.00030
   46   -0.02853
   47   -0.42874
   48   -0.00104
   49    0.00201
   50    0.00059
 Ene= 0.0
 Spin= Alpha
 Occup=     0.0000
    1   -0.36750
    2   -0.18043
    3    2.75537
    4   -0.14981
    5    0.28079
    6    0.18627
    7   -0.07632
    8    0.14571
    9    0.62086
   10   -1.70475
   11   -1.43382
   12   -1.15922
   13   -0.25133
   14    0.14175
   15   -0.23460
   16   -0.28841
   17   -0.30495
   18    3.01849
   19    0.11610
   20   -0.23584
   21    0.14836
   22    0.04885
   23   -0.08877
   24   -0.73941
   25   -1.01156
   26   -1.22654
   27   -0.87285
   28    0.16664
   29    0.08568
   30   -0.17047
   31    0.69387
   32   -0.17216
   33   -0.60164
   34   -0.00327
   35    0.20285
   36    0.68889
   37   -0.17196
   38    0.33180
   39    0.50828
   40    0.18524
   41   -0.01090
   42   -1.48511
   43    0.01085
   44   -0.01797
   45    0.21965
   46    0.45525
   47   -0.01119
   48    0.20739
   49   -0.41567
   50   -0.08700
 Ene= 0.0
 Spin= Alpha
 Occup=     0.0000
    1   -0.21753
    2    0.06286
    3    1.30391
    4   -0.11392
    5    0.19675
    6    0.20924
    7   -0.02975
    8    0.01787
    9    0.00320
   10   -1.03227
   11   -0.79967
   12   -0.74109
   13   -0.19109
   14    0.08964
   15   -0.12523
   16    0.35160
   17   -0.04980
   18   -2.50871
   19   -0.18460
   20    0.37031
   21   -0.06249
   22   -0.07517
   23    0.14753
   24    0.32042
   25    1.16520
   26    1.53110
   27    1.24746
   28   -0.28295
   29   -0.14053
   30    0.27975
   31    0.46232
   32   -0.16665
   33   -0.36224
   34    0.03688
   35    0.18807
   36    0.43059
   37   -0.17936
   38    0.15798
   39    0.31037
   40    0.16641
   41   -0.24939
   42    0.51873
   43   -0.02959
   44    0.06311
   45   -0.16753
   46   -0.79316
   47    0.16063
   48   -0.31029
   49    0.62022
   50    0.14004
 Ene= 0.0
 Spin= Alpha
 Occup=     0.0000
    1    0.02805
    2    0.00376
    3   -0.31850
    4   -0.03174
    5    0.00118
    6   -0.00261
    7   -0.04523
    8   -0.01429
    9   -0.05484
   10   -0.00760
   11    0.08674
   12    0.13159
   13   -0.01836
   14    0.03468
   15    0.00858
   16   -0.05185
   17    0.04839
   18   -0.11225
   19   -0.11915
   20    0.22977
   21    0.75852
   22   -0.25961
   23    0.50650
   24    1.27069
   25    0.12283
   26    0.60108
   27   -1.59001
   28   -0.36985
   29   -0.17106
   30    0.36516
   31    0.09723
   32    0.01410
   33   -0.04150
   34    0.01416
   35    0.05287
   36    0.01130
   37   -0.02299
   38   -0.02159
   39   -0.01041
   40    0.01823
   41    1.57202
   42    0.77946
   43    0.04801
   44   -0.10551
   45    1.37145
   46   -0.85175
   47   -0.51285
   48   -0.29675
   49    0.59238
   50    0.18883
 Ene= 0.0
 Spin= Alpha
 Occup=     0.0000
    1    0.00139
    2   -0.00138
    3   -0.00228
    4   -0.73798
    5   -0.40871
    6    0.01045
    7   -1.17512
    8   -0.64564
    9    0.02480
   10   -0.74004
   11    0.78528
   12   -0.02470
   13    0.58537
   14    0.89933
   15    0.47623
   16   -0.00164
   17   -0.00072
   18    0.02357
   19   -0.00564
   20   -0.01906
   21   -0.02421
   22    0.01005
   23   -0.02080
   24   -0.04275
   25   -0.01661
   26   -0.03452
   27    0.03989
   28    0.01796
   29    0.04241
   30    0.00622
   31    1.28084
   32    0.53363
   33   -0.96249
   34    0.02390
   35    0.48436
   36   -1.29440
   37   -0.52954
   38   -0.51241
   39   -0.84066
   40   -0.46537
   41   -0.04770
   42   -0.03093
   43    0.07210
   44    0.04514
   45   -0.04009
   46    0.03834
   47    0.01713
   48    0.00655
   49   -0.03075
   50   -0.01104
 Ene= 0.0
 Spin= Alpha
 Occup=     0.0000
    1    0.09220
    2   -0.08853
    3   -1.09172
    4   -0.05567
    5    0.10843
    6    0.11657
    7   -0.08558
    8    0.16291
    9    0.08607
   10    0.05071
   11    0.21209
   12    0.33195
   13   -0.15275
   14    0.06690
   15   -0.11397
   16    0.21101
   17   -0.24633
   18   -2.70377
   19    0.23017
   20   -0.46244
   21    0.10440
   22    0.33172
   23   -0.66823
   24    0.30755
   25    0.82683
   26    0.15609
   27    0.25232
   28    0.51706
   29    0.15825
   30   -0.30787
   31    0.29949
   32    0.15347
   33   -0.25035
   34   -0.00201
   35    0.14935
   36    0.30441
   37    0.15241
   38    0.14176
   39    0.21567
   40    0.14132
   41    0.54480
   42    0.64099
   43   -0.00090
   44   -0.00625
   45    0.63781
   46    1.10170
   47    0.56077
   48    0.45254
   49   -0.90301
   50   -0.37995
 Ene= 0.0
 Spin= Alpha
 Occup=     0.0000
    1   -0.23927
    2    0.35635
    3    2.65287
    4    0.15723
    5   -0.29496
    6   -0.33218
    7    0.24202
    8   -0.45644
    9   -0.51427
   10   -0.23049
   11   -0.59456
   12   -0.75516
   13    0.34098
   14   -0.20621
   15    0.34569
   16    0.07030
   17   -0.10153
   18   -0.92211
   19    0.07832
   20   -0.15749
   21    0.08785
   22    0.10890
   23   -0.22088
   24    0.16265
   25    0.29345
   26    0.07549
   27    0.00151
   28    0.16761
   29    0.03029
   30   -0.05624
   31   -0.73660
   32   -0.54063
   33    0.76296
   34    0.04448
   35   -0.32108
   36   -0.73395
   37   -0.54070
   38   -0.45465
   39   -0.62225
   40   -0.29924
   41    0.28110
   42    0.22613
   43   -0.01978
   44    0.03533
   45    0.31834
   46    0.33874
   47    0.18775
   48    0.14438
   49   -0.28748
   50   -0.14784
 Ene= 0.0
 Spin= Alpha
 Occup=     0.0000
    1    0.01055
    2    0.09134
    3   -0.29101
    4    0.00403
    5   -0.00423
    6   -0.04628
    7   -0.16504
    8    0.31264
    9    0.47378
   10    0.56099
   11   -0.12296
   12   -0.34789
   13    0.60367
   14    0.25738
   15   -0.51929
   16    0.01106
   17   -0.08542
   18    0.07881
   19   -0.00477
   20    0.00793
   21    0.05475
   22    0.02709
   23   -0.05376
   24   -0.03832
   25    0.03155
   26    0.00692
   27    0.05408
   28    0.01803
   29   -0.06233
   30    0.12822
   31    0.07677
   32    0.11349
   33   -0.19574
   34   -0.65616
   35   -0.50257
   36    0.07738
   37    0.11432
   38    0.64661
   39   -0.19132
   40   -0.51848
   41    0.02587
   42   -0.22071
   43   -0.04919
   44    0.10405
   45    0.08588
   46   -0.02302
   47    0.05246
   48   -0.02087
   49    0.04200
   50   -0.10786
 Ene= 0.0
 Spin= Alpha
 Occup=     0.0000
    1    0.01132
    2   -0.05545
    3   -0.01898
    4   -0.00801
    5    0.02443
    6    0.00320
    7    0.04758
    8   -0.08952
    9   -0.03430
   10   -0.04323
   11    0.06993
   12    0.06926
   13   -0.10149
   14   -0.02918
   15    0.04871
   16   -0.01919
   17    0.16678
   18   -0.20282
   19    0.01337
   20   -0.02684
   21    0.00967
   22    0.18250
   23   -0.36897
   24    0.27570
   25   -0.06212
   26   -0.36087
   27    0.19194
   28    0.22160
   29   -0.41256
   30    0.82506
   31   -0.01633
   32   -0.00863
   33    0.00308
   34    0.12045
   35    0.04771
   36   -0.01173
   37   -0.00759
   38   -0.09737
   39    0.07158
   40    0.04843
   41    0.11439
   42    0.08810
   43   -0.37591
   44    0.75302
   45    0.03720
   46    0.13239
   47    0.07589
   48   -0.10861
   49    0.22638
   50   -0.78800
 Ene= 0.0
 Spin= Alpha
 Occup=     0.0000
    1   -0.00059
    2    0.00392
    3   -0.00208
    4   -0.08480
    5   -0.04546
    6    0.00588
    7    0.12100
    8    0.05452
    9   -0.00021
   10    0.33791
   11   -0.30812
   12   -0.03535
   13   -0.24004
   14    0.37173
   15    0.20856
   16    0.00056
   17    0.00755
   18   -0.02542
   19    0.02888
   20    0.01162
   21   -0.00246
   22    0.17326
   23    0.08622
   24    0.01911
   25    0.00307
   26    0.01778
   27   -0.01921
   28    0.01081
   29   -0.54091
   30   -0.26561
   31   -0.04094
   32   -0.00817
   33   -0.25786
   34    0.26939
   35   -0.36113
   36    0.04146
   37    0.00591
   38    0.08701
   39   -0.32917
   40    0.33236
   41    0.01798
   42    0.01353
   43   -0.70578
   44   -0.35166
   45   -0.00522
   46   -0.00083
   47    0.00073
   48    0.02544
   49    0.00903
   50   -0.00438
 Ene= 0.0
 Spin= Alpha
 Occup=     0.0000
    1   -0.00409
    2    0.02974
    3   -0.02300
    4   -0.02388
    5    0.03884
    6   -0.01394
    7   -0.14314
    8    0.25588
    9   -0.35132
   10   -0.13083
   11   -0.50917
   12    0.59405
   13    0.30038
   14    0.02379
   15    0.02456
   16    0.00006
   17    0.04702
   18   -0.07965
   19   -0.01516
   20    0.03116
   21   -0.00003
   22    0.02324
   23   -0.04055
   24   -0.00810
   25   -0.02560
   26   -0.07616
   27    0.12643
   28    0.04109
   29   -0.01346
   30    0.01140
   31    0.01199
   32   -0.01298
   33    0.24876
   34   -0.46701
   35    0.54343
   36    0.01543
   37   -0.01389
   38    0.29024
   39   -0.48539
   40    0.57897
   41   -0.09440
   42    0.14231
   43   -0.00783
   44   -0.00341
   45   -0.01659
   46    0.06245
   47   -0.03624
   48   -0.03437
   49    0.06607
   50   -0.04395
 Ene= 0.0
 Spin= Alpha
 Occup=     0.0000
    1    0.00005
    2   -0.00006
    3   -0.00021
    4    0.00550
    5    0.00278
    6   -0.00022
    7   -0.00727
    8   -0.00418
    9    0.00059
   10   -0.01714
   11    0.01786
   12   -0.00015
   13    0.01215
   14   -0.00590
   15   -0.00350
   16   -0.00002
   17   -0.00021
   18    0.00064
   19    0.03715
   20    0.01848
   21    0.00022
   22    0.28732
   23    0.14345
   24    0.00123
   25   -0.55621
   26    0.55470
   27    0.00139
   28    0.48178
   29    0.14551
   30    0.07678
   31    0.01011
   32   -0.00659
   33    0.01273
   34   -0.00937
   35    0.00875
   36   -0.01030
   37    0.00681
   38   -0.00226
   39    0.01640
   40   -0.00993
   41   -0.00016
   42   -0.00052
   43   -0.11415
   44   -0.05695
   45   -0.00060
   46   -0.00010
   47    0.00005
   48   -0.95678
   49   -0.47739
   50   -0.00497
 Ene= 0.0
 Spin= Alpha
 Occup=     0.0000
    1    0.00000
    2   -0.00126
    3    0.00170
    4    0.07840
    5    0.04109
    6   -0.00132
    7   -0.12380
    8   -0.07299
    9    0.01021
   10    0.32798
   11   -0.30261
   12   -0.02561
   13   -0.23134
   14    0.43613
   15    0.24871
   16    0.00043
   17   -0.00185
   18   -0.00161
   19   -0.01762
   20   -0.01018
   21    0.00041
   22   -0.15360
   23   -0.07553
   24    0.00282
   25   -0.00830
   26    0.01219
   27   -0.00162
   28    0.00357
   29    0.49445
   30    0.25010
   31    0.05577
   32    0.00924
   33   -0.11861
   34    0.38286
   35   -0.40683
   36   -0.05623
   37   -0.00781
   38    0.25893
   39   -0.28016
   40    0.38245
   41    0.00844
   42   -0.00512
   43    0.62167
   44    0.31092
   45    0.00400
   46   -0.00369
   47    0.00242
   48   -0.04842
   49   -0.02651
   50   -0.00235
 Ene= 0.0
 Spin= Alpha
 Occup=     0.0000
    1    0.02722
    2   -0.13950
    3    0.04528
    4    0.02625
    5   -0.06286
    6   -0.16934
    7   -0.01119
    8    0.03847
    9    0.39476
   10   -0.02188
   11    0.04346
   12    0.22807
   13   -0.08943
   14    0.01122
   15   -0.01475
   16   -0.01385
   17   -0.34983
   18    0.93179
   19   -0.07528
   20    0.14770
   21    0.31420
   22    0.07260
   23   -0.13335
   24   -0.83487
   25   -0.33879
   26   -0.51082
   27    0.76907
   28    0.13414
   29    0.08676
   30   -0.19591
   31    0.03763
   32    0.03290
   33    0.02274
   34    0.07745
   35   -0.12122
   36    0.05221
   37    0.02434
   38   -0.07667
   39   -0.00106
   40   -0.11542
   41   -0.79503
   42   -0.49720
   43    0.00000
   44   -0.01442
   45    0.37052
   46    0.28375
   47   -0.07625
   48   -0.13096
   49    0.26076
   50    0.14198
 Ene= 0.0
 Spin= Alpha
 Occup=     0.0000
    1    0.00057
    2   -0.00314
    3    0.00127
    4    0.27645
    5    0.15057
    6   -0.00886
    7   -0.47559
    8   -0.25964
    9    0.01662
   10   -0.45455
   11    0.46970
   12   -0.00987
   13    0.34986
   14    0.53586
   15    0.28184
   16   -0.00048
   17   -0.00739
   18    0.02106
   19   -0.00829
   20   -0.00281
   21    0.00471
   22    0.04288
   23    0.02069
   24   -0.01538
   25    0.00244
   26   -0.01530
   27    0.00897
   28   -0.00621
   29   -0.11090
   30   -0.06025
   31    0.59656
   32   -0.15719
   33    0.32402
   34   -0.04746
   35   -0.18346
   36   -0.59500
   37    0.15902
   38    0.13711
   39    0.29938
   40    0.17364
   41   -0.01274
   42   -0.01350
   43   -0.11244
   44   -0.05431
   45    0.00549
   46    0.00276
   47   -0.00022
   48    0.01814
   49    0.01113
   50    0.00530
 Ene= 0.0
 Spin= Alpha
 Occup=     0.0000
    1   -0.01014
    2    0.17005
    3   -0.22663
    4   -0.00884
    5    0.01945
    6    0.14252
    7    0.01681
    8   -0.02374
    9   -0.36199
   10    0.08963
   11    0.07078
   12   -0.24178
   13    0.02588
   14   -0.02254
   15    0.03393
   16    0.05468
   17    0.75165
   18   -2.00541
   19   -0.07394
   20    0.14960
   21   -0.05534
   22    0.22364
   23   -0.45957
   24    0.65335
   25    0.66619
   26   -0.13384
   27   -0.05661
   28    0.61613
   29    0.16570
   30   -0.30933
   31   -0.02409
   32   -0.04470
   33   -0.03170
   34   -0.01258
   35    0.02198
   36   -0.02211
   37   -0.04131
   38    0.01314
   39    0.02818
   40    0.02773
   41    0.47487
   42    0.93084
   43    0.08944
   44   -0.16955
   45   -0.03660
   46    0.82492
   47   -0.08470
   48   -0.16652
   49    0.33540
   50   -0.17424
 Ene= 0.0
 Spin= Alpha
 Occup=     0.0000
    1   -0.00187
    2   -0.01489
    3    0.04300
    4    0.02257
    5    0.01956
    6    0.00491
    7   -0.43907
    8   -0.26086
    9   -0.01070
   10    0.04816
   11   -0.05122
   12   -0.01387
   13   -0.01693
   14   -0.06337
   15   -0.01741
   16    0.00173
   17    0.02147
   18   -0.05496
   19   -0.01158
   20    0.00114
   21   -0.00115
   22    0.05370
   23   -0.01635
   24   -0.01680
   25    0.02526
   26    0.00537
   27   -0.01458
   28    0.01831
   29   -0.08516
   30   -0.05535
   31    0.13367
   32    0.09207
   33    0.23383
   34    0.59668
   35    0.40247
   36   -0.17235
   37   -0.10200
   38    0.62246
   39   -0.12127
   40   -0.40756
   41    0.00739
   42    0.00543
   43   -0.09976
   44    0.01053
   45    0.00107
   46    0.03601
   47    0.00933
   48    0.00576
   49   -0.00397
   50    0.05448
 Ene= 0.0
 Spin= Alpha
 Occup=     0.0000
    1    0.02711
    2    0.24721
    3   -0.67861
    4    0.03948
    5   -0.07099
    6   -0.05514
    7   -0.14894
    8    0.19406
    9    0.20206
   10   -0.08579
   11    0.13661
   12    0.20025
   13   -0.21111
   14    0.10370
   15   -0.18209
   16   -0.01647
   17   -0.11594
   18    0.35605
   19    0.02699
   20   -0.05569
   21   -0.03446
   22   -0.18158
   23    0.36783
   24    0.33002
   25   -0.20958
   26   -0.05075
   27    0.12216
   28   -0.12212
   29   -0.03996
   30    0.05716
   31    0.28794
   32    0.07355
   33    0.08964
   34    0.03761
   35   -0.02575
   36    0.25998
   37    0.06009
   38    0.01909
   39   -0.07389
   40   -0.09177
   41   -0.01973
   42    0.07251
   43    0.29904
   44   -0.61324
   45   -0.06020
   46   -0.32598
   47   -0.12234
   48   -0.04568
   49    0.09952
   50   -0.66935
 Ene= 0.0
 Spin= Alpha
 Occup=     0.0000
    1   -0.05773
    2   -0.56755
    3    1.50199
    4   -0.04925
    5    0.09271
    6    0.08945
    7    0.20724
    8   -0.39776
    9   -0.36156
   10    0.22618
   11   -0.27318
   12   -0.49015
   13    0.47283
   14   -0.30239
   15    0.51621
   16   -0.01132
   17   -0.21858
   18    0.48915
   19    0.01457
   20   -0.03040
   21    0.08993
   22   -0.09345
   23    0.18929
   24   -0.05313
   25   -0.21042
   26   -0.07237
   27    0.14780
   28   -0.10612
   29   -0.02045
   30    0.03231
   31   -0.63091
   32   -0.11501
   33   -0.17014
   34    0.05092
   35    0.08346
   36   -0.63542
   37   -0.11541
   38    0.05812
   39    0.17084
   40    0.07472
   41   -0.10270
   42   -0.13242
   43    0.11096
   44   -0.22718
   45    0.08889
   46   -0.19038
   47   -0.04474
   48   -0.01385
   49    0.03046
   50   -0.23891
 Ene= 0.0
 Spin= Alpha
 Occup=     0.0000
    1   -0.00911
    2   -0.30991
    3    0.59212
    4    0.02160
    5   -0.04335
    6   -0.18464
    7    0.01597
    8   -0.02007
    9    0.61037
   10   -0.27484
   11   -0.51146
   12    0.61409
   13    0.22177
   14   -0.04891
   15    0.11035
   16   -0.03119
   17   -0.42617
   18    1.45827
   19   -0.01833
   20    0.03409
   21    0.00482
   22    0.00259
   23    0.00208
   24   -0.54970
   25    0.11036
   26   -0.11911
   27   -0.26271
   28    0.18074
   29   -0.00327
   30   -0.00456
   31   -0.02143
   32    0.06960
   33   -0.09820
   34    0.10239
   35   -0.18687
   36   -0.02457
   37    0.07135
   38   -0.03846
   39    0.13262
   40   -0.18560
   41    0.02961
   42   -1.39164
   43    0.02151
   44   -0.03604
   45   -0.21777
   46   -0.07570
   47    0.14219
   48   -0.00188
   49    0.00494
   50   -0.02536
 Ene= 0.0
 Spin= Alpha
 Occup=     0.0000
    1    0.00016
    2    0.00149
    3   -0.00484
    4    0.03058
    5    0.01580
    6   -0.00092
    7   -0.05922
    8   -0.02761
    9    0.00168
   10   -0.00366
   11    0.00981
   12   -0.00505
   13   -0.00177
   14   -0.02498
   15   -0.01030
   16    0.00008
   17    0.00030
   18   -0.00205
   19   -0.03693
   20   -0.01831
   21    0.00034
   22   -0.15526
   23   -0.07790