6 
Step: 1      Time_fs: 0.0967553730602
 O 0.05780542 -0.30835040 -1.42485174
 O -0.02526107 0.31063626 1.52696280
 H -0.01452253 -1.25371457 -1.24864389
 H -0.37641427 0.01033845 -2.20981131
 H 0.61968579 1.06111842 0.99809062
 H -0.74532445 0.14597427 0.83955888
6 
Step: 2      Time_fs: 0.1935107461204
 O 0.05780782 -0.30834927 -1.42483457
 O -0.02524663 0.31065775 1.52693990
 H -0.01454576 -1.25365720 -1.24879513
 H -0.37644299 0.01026112 -2.20985009
 H 0.61943511 1.06079174 0.99833634
 H -0.74528898 0.14596196 0.83959418
6 
Step: 3      Time_fs: 0.2902661191806
 O 0.05781180 -0.30834737 -1.42480598
 O -0.02522260 0.31069353 1.52690177
 H -0.01458447 -1.25356204 -1.24904702
 H -0.37649076 0.01013228 -2.20991456
 H 0.61901782 1.06024787 0.99874549
 H -0.74523002 0.14594141 0.83965289
6 
Step: 4      Time_fs: 0.3870214922408
 O 0.05781737 -0.30834466 -1.42476600
 O -0.02518900 0.31074354 1.52684844
 H -0.01463863 -1.25342973 -1.24939929
 H -0.37655740 0.00995200 -2.21000444
 H 0.61843466 1.05948770 0.99931752
 H -0.74514780 0.14591256 0.83973484
6 
Step: 5      Time_fs: 0.483776865301
 O 0.05782450 -0.30834108 -1.42471468
 O -0.02514587 0.31080773 1.52677999
 H -0.01470819 -1.25326120 -1.24985157
 H -0.37664269 0.00972036 -2.21011939
 H 0.61768672 1.05851247 1.00005163
 H -0.74504267 0.14587533 0.83983976
6 
Step: 6      Time_fs: 0.5805322383612
 O 0.05783317 -0.30833657 -1.42465206
 O -0.02509329 0.31088598 1.52669650
 H -0.01479310 -1.25305762 -1.25040337
 H -0.37674635 0.00943748 -2.21025893
 H 0.61677537 1.05732380 1.00094678
 H -0.74491505 0.14582964 0.83996735
6 
Step: 7      Time_fs: 0.6772876114214
 O 0.05784336 -0.30833105 -1.42457823
 O -0.02503132 0.31097819 1.52659807
 H -0.01489330 -1.25282042 -1.25105413
 H -0.37686802 0.00910351 -2.21042252
 H 0.61570231 1.05592369 1.00200170
 H -0.74476545 0.14577536 0.84011721
6 
Step: 8      Time_fs: 0.7740429844816
 O 0.05785503 -0.30832443 -1.42449327
 O -0.02496006 0.31108420 1.52648483
 H -0.01500871 -1.25255126 -1.25180317
 H -0.37700730 0.00871863 -2.21060948
 H 0.61446960 1.05431455 1.00321487
 H -0.74459448 0.14571236 0.84028889
6 
Step: 9      Time_fs: 0.8707983575418
 O 0.05786815 -0.30831661 -1.42439726
 O -0.02487961 0.31120387 1.52635692
 H -0.01513925 -1.25225206 -1.25264969
 H -0.37716372 0.00828303 -2.21081909
 H 0.61307963 1.05249917 1.00458448
 H -0.74440284 0.14564048 0.84048185
6 
Step: 10      Time_fs: 0.967553730602
 O 0.05788269 -0.30830746 -1.42429032
 O -0.02479009 0.31133699 1.52621450
 H -0.01528481 -1.25192495 -1.25359283
 H -0.37733677 0.00779697 -2.21105051
 H 0.61153516 1.05048079 1.00610847
 H -0.74419131 0.14555954 0.84069553
6 
Step: 11      Time_fs: 1.0643091036622
 O 0.05789860 -0.30829686 -1.42417256
 O -0.02469167 0.31148335 1.52605776
 H -0.01544528 -1.25157228 -1.25463161
 H -0.37752587 0.00726071 -2.21130282
 H 0.60983934 1.04826307 1.00778449
 H -0.74396075 0.14546935 0.84092928
6 
Step: 12      Time_fs: 1.1610644767224
 O 0.05791583 -0.30828466 -1.42404410
 O -0.02458448 0.31164271 1.52588691
 H -0.01562054 -1.25119660 -1.25576498
 H -0.37773040 0.00667457 -2.21157503
 H 0.60799570 1.04585016 1.00960987
 H -0.74371210 0.14536970 0.84118239
6 
Step: 13      Time_fs: 1.2578198497826
 O 0.05793433 -0.30827072 -1.42390509
 O -0.02446874 0.31181478 1.52570218
 H -0.01581044 -1.25080067 -1.25699180
 H -0.37794971 0.00603889 -2.21186608
 H 0.60600821 1.04324670 1.01158164
 H -0.74344638 0.14526037 0.84145411
6 
Step: 14      Time_fs: 1.3545752228428
 O 0.05795406 -0.30825489 -1.42375566
 O -0.02434463 0.31199927 1.52550383
 H -0.01601481 -1.25038742 -1.25831082
 H -0.37818310 0.00535407 -2.21217484
 H 0.60388128 1.04045783 1.01369648
 H -0.74316469 0.14514111 0.84174364
6 
Step: 15      Time_fs: 1.451330595903
 O 0.05797495 -0.30823699 -1.42359597
 O -0.02421241 0.31219583 1.52529214
 H -0.01623350 -1.24995995 -1.25972075
 H -0.37842981 0.00462054 -2.21250011
 H 0.60161979 1.03748925 1.01595070
 H -0.74286818 0.14501168 0.84205012
6 
Step: 16      Time_fs: 1.5480859689632
 O 0.05799694 -0.30821686 -1.42342619
 O -0.02407233 0.31240408 1.52506741
 H -0.01646630 -1.24952151 -1.26122019
 H -0.37868908 0.00383879 -2.21284066
 H 0.59922913 1.03434723 1.01834026
 H -0.74255807 0.14487181 0.84237267
6 
Step: 17      Time_fs: 1.6448413420234
 O 0.05801998 -0.30819432 -1.42324648
 O -0.02392469 0.31262363 1.52482999
 H -0.01671301 -1.24907548 -1.26280770
 H -0.37896010 0.00300933 -2.21319518
 H 0.59671518 1.03103864 1.02086070
 H -0.74223565 0.14472122 0.84271034
6 
Step: 18      Time_fs: 1.7415967150836
 O 0.05804400 -0.30816919 -1.42305702
 O -0.02376980 0.31285400 1.52458024
 H -0.01697341 -1.24862535 -1.26448175
 H -0.37924206 0.00213276 -2.21356235
 H 0.59408440 1.02757099 1.02350714
 H -0.74190226 0.14455965 0.84306217
6 
Step: 19      Time_fs: 1.8383520881438
 O 0.05806894 -0.30814128 -1.42285800
 O -0.02360804 0.31309472 1.52431855
 H -0.01724724 -1.24817471 -1.26624076
 H -0.37953409 0.00120970 -2.21394078
 H 0.59134383 1.02395249 1.02627426
 H -0.74155927 0.14438679 0.84342716
6 
Step: 20      Time_fs: 1.935107461204
 O 0.05809471 -0.30811042 -1.42264959
 O -0.02343978 0.31334523 1.52404534
 H -0.01753425 -1.24772723 -1.26808309
 H -0.37983534 0.00024085 -2.21432908
 H 0.58850112 1.02019201 1.02915626
 H -0.74120811 0.14420236 0.84380430
6 
Step: 21      Time_fs: 2.0318628342642002
 O 0.05812126 -0.30807641 -1.42243199
 O -0.02326548 0.31360496 1.52376108
 H -0.01783415 -1.24728663 -1.27000704
 H -0.38014493 -0.00077306 -2.21472584
 H 0.58556456 1.01629919 1.03214686
 H -0.74085025 0.14400607 0.84419253
6 
Step: 22      Time_fs: 2.1286182073244
 O 0.05814851 -0.30803909 -1.42220539
 O -0.02308559 0.31387327 1.52346625
 H -0.01814662 -1.24685665 -1.27201088
 H -0.38046198 -0.00183122 -2.21512961
 H 0.58254313 1.01228446 1.03523925
 H -0.74048719 0.14379762 0.84459081
6 
Step: 23      Time_fs: 2.2253735803846
 O 0.05817638 -0.30799827 -1.42197000
 O -0.02290063 0.31414948 1.52316139
 H -0.01847134 -1.24644106 -1.27409282
 H -0.38078561 -0.00293276 -2.21553895
 H 0.57944652 1.00815903 1.03842609
 H -0.74012043 0.14357673 0.84499807
6 
Step: 24      Time_fs: 2.3221289534448
 O 0.05820481 -0.30795377 -1.42172602
 O -0.02271118 0.31443286 1.52284704
 H -0.01880795 -1.24604361 -1.27625103
 H -0.38111493 -0.00407675 -2.21595243
 H 0.57628513 1.00393498 1.04169948
 H -0.73975153 0.14334313 0.84541323
6 
Step: 25      Time_fs: 2.418884326505
 O 0.05823372 -0.30790544 -1.42147365
 O -0.02251784 0.31472259 1.52252382
 H -0.01915605 -1.24566800 -1.27848367
 H -0.38144908 -0.00526220 -2.21636860
 H 0.57307015 0.99962523 1.04505093
 H -0.73938201 0.14309652 0.84583523
6 
Step: 26      Time_fs: 2.5156396995652
 O 0.05826302 -0.30785311 -1.42121310
 O -0.02232127 0.31501785 1.52219236
 H -0.01951524 -1.24531787 -1.28078885
 H -0.38178718 -0.00648804 -2.21678604
 H 0.56981357 0.99524362 1.04847134
 H -0.73901344 0.14283667 0.84626299
6 
Step: 27      Time_fs: 2.6123950726254
 O 0.05829265 -0.30779664 -1.42094457
 O -0.02212219 0.31531771 1.52185332
 H -0.01988507 -1.24499678 -1.28316465
 H -0.38212838 -0.00775314 -2.21720334
 H 0.56652815 0.99080490 1.05195102
 H -0.73864736 0.14256332 0.84669548
6 
Step: 28      Time_fs: 2.7091504456856
 O 0.05832253 -0.30773589 -1.42066826
 O -0.02192135 0.31562121 1.52150743
 H -0.02026508 -1.24470820 -1.28560916
 H -0.38247186 -0.00905631 -2.21761913
 H 0.56322751 0.98632476 1.05547965
 H -0.73828530 0.14227624 0.84713164
6 
Step: 29      Time_fs: 2.8059058187458
 O 0.05835258 -0.30767073 -1.42038439
 O -0.02171959 0.31592733 1.52115544
 H -0.02065474 -1.24445542 -1.28812042
 H -0.38281681 -0.01039627 -2.21803205
 H 0.55992607 0.98181980 1.05904627
 H -0.73792878 0.14197523 0.84757046
6 
Step: 30      Time_fs: 2.902661191806
 O 0.05838271 -0.30760106 -1.42009315
 O -0.02151777 0.31623496 1.52079813
 H -0.02105354 -1.24424160 -1.29069647
 H -0.38316243 -0.01177170 -2.21844079
 H 0.55663909 0.97730756 1.06263933
 H -0.73757928 0.14166012 0.84801094
6 
Step: 31      Time_fs: 2.9994165648662
 O 0.05841287 -0.30752678 -1.41979475
 O -0.02131681 0.31654297 1.52043633
 H -0.02146089 -1.24406971 -1.29333535
 H -0.38350799 -0.01318118 -2.21884408
 H 0.55338263 0.97280647 1.06624666
 H -0.73723827 0.14133073 0.84845210
6 
Step: 32      Time_fs: 3.0961719379264
 O 0.05844295 -0.30744782 -1.41948939
 O -0.02111770 0.31685016 1.52007091
 H -0.02187617 -1.24394254 -1.29603508
 H -0.38385275 -0.01462324 -2.21924069
 H 0.55017353 0.96833583 1.06985553
 H -0.73690714 0.14098696 0.84889301
6 
Step: 33      Time_fs: 3.1929273109866
 O 0.05847290 -0.30736412 -1.41917727
 O -0.02092147 0.31715527 1.51970274
 H -0.02229876 -1.24386260 -1.29879368
 H -0.38419602 -0.01609633 -2.21962945
 H 0.54702935 0.96391573 1.07345268
 H -0.73658728 0.14062870 0.84933276
6 
Step: 34      Time_fs: 3.2896826840468
 O 0.05850263 -0.30727564 -1.41885858
 O -0.02072918 0.31745699 1.51933276
 H -0.02272795 -1.24383221 -1.30160918
 H -0.38453715 -0.01759884 -2.22000924
 H 0.54396831 0.95956700 1.07702437
 H -0.73627998 0.14025590 0.84977045
6 
Step: 35      Time_fs: 3.386438057107
 O 0.05853207 -0.30718237 -1.41853351
 O -0.02054196 0.31775398 1.51896192
 H -0.02316302 -1.24385339 -1.30447960
 H -0.38487551 -0.01912910 -2.22037899
 H 0.54100924 0.95531108 1.08055644
 H -0.73598651 0.13986853 0.85020526
6 
Step: 36      Time_fs: 3.4831934301672
 O 0.05856113 -0.30708430 -1.41820226
 O -0.02036094 0.31804486 1.51859116
 H -0.02360320 -1.24392789 -1.30740297
 H -0.38521052 -0.02068535 -2.22073770
 H 0.53817140 0.95116993 1.08403441
 H -0.73570805 0.13946662 0.85063635
6 
Step: 37      Time_fs: 3.5799488032274
 O 0.05858974 -0.30698147 -1.41786501
 O -0.02018731 0.31832824 1.51822149
 H -0.02404769 -1.24405714 -1.31037732
 H -0.38554162 -0.02226580 -2.22108443
 H 0.53547445 0.94716586 1.08744359
 H -0.73544571 0.13905021 0.85106295
6 
Step: 38      Time_fs: 3.6767041762876
 O 0.05861783 -0.30687393 -1.41752194
 O -0.02002226 0.31860268 1.51785387
 H -0.02449562 -1.24424228 -1.31340069
 H -0.38586832 -0.02386858 -2.22141831
 H 0.53293821 0.94332136 1.09076915
 H -0.73520055 0.13861940 0.85148427
6 
Step: 39      Time_fs: 3.7734595493478
 O 0.05864531 -0.30676175 -1.41717322
 O -0.01986698 0.31886677 1.51748929
 H -0.02494611 -1.24448410 -1.31647114
 H -0.38619011 -0.02549178 -2.22173852
 H 0.53058257 0.93965891 1.09399630
 H -0.73497353 0.13817432 0.85189958
6 
Step: 40      Time_fs: 3.870214922408
 O 0.05867210 -0.30664503 -1.41681904
 O -0.01972267 0.31911910 1.51712872
 H -0.02539822 -1.24478307 -1.31958672
 H -0.38650656 -0.02713343 -2.22204432
 H 0.52842723 0.93620077 1.09711043
 H -0.73476555 0.13771514 0.85230813
6 
Step: 41      Time_fs: 3.9669702954682
 O 0.05869813 -0.30652389 -1.41645955
 O -0.01959050 0.31935829 1.51677312
 H -0.02585096 -1.24513929 -1.32274551
 H -0.38681725 -0.02879150 -2.22233502
 H 0.52649152 0.93296870 1.10009722
 H -0.73457743 0.13724206 0.85270920
6 
Step: 42      Time_fs: 4.0637256685284004
 O 0.05872330 -0.30639849 -1.41609493
 O -0.01947162 0.31958300 1.51642340
 H -0.02630330 -1.24555252 -1.32594558
 H -0.38712179 -0.03046394 -2.22261001
 H 0.52479417 0.92998374 1.10294290
 H -0.73440990 0.13675533 0.85310205
6 
Step: 43      Time_fs: 4.1604810415886
 O 0.05874755 -0.30626899 -1.41572534
 O -0.01936711 0.31979196 1.51608045
 H -0.02675418 -1.24602215 -1.32918504
 H -0.38741981 -0.03214863 -2.22286872
 H 0.52335304 0.92726590 1.10563436
 H -0.73426363 0.13625523 0.85348592
6 
Step: 44      Time_fs: 4.2572364146488
 O 0.05877079 -0.30613560 -1.41535092
 O -0.01927800 0.31998397 1.51574507
 H -0.02720248 -1.24654723 -1.33246198
 H -0.38771096 -0.03384344 -2.22311066
 H 0.52218489 0.92483390 1.10815936
 H -0.73413921 0.13574204 0.85386006
6 
Step: 45      Time_fs: 4.353991787709
 O 0.05879292 -0.30599853 -1.41497184
 O -0.01920523 0.32015792 1.51541805
 H -0.02764704 -1.24712642 -1.33577453
 H -0.38799493 -0.03554620 -2.22333539
 H 0.52130508 0.92270488 1.11050673
 H -0.73403716 0.13521611 0.85422365
6 
Step: 46      Time_fs: 4.4507471607692
 O 0.05881385 -0.30585803 -1.41458823
 O -0.01914965 0.32031285 1.51510005
 H -0.02808667 -1.24775806 -1.33912081
 H -0.38827139 -0.03725470 -2.22354252
 H 0.52072738 0.92089411 1.11266649
 H -0.73395792 0.13467779 0.85457585
6 
Step: 47      Time_fs: 4.5475025338294
 O 0.05883351 -0.30571436 -1.41420024
 O -0.01911199 0.32044788 1.51479168
 H -0.02852013 -1.24844010 -1.34249896
 H -0.38854006 -0.03896674 -2.22373172
 H 0.52046368 0.91941475 1.11463008
 H -0.73390189 0.13412745 0.85491578
6 
Step: 48      Time_fs: 4.6442579068896
 O 0.05885178 -0.30556783 -1.41380801
 O -0.01909284 0.32056232 1.51449345
 H -0.02894615 -1.24917019 -1.34590712
 H -0.38880063 -0.04068005 -2.22390269
 H 0.52052379 0.91827760 1.11639045
 H -0.73386937 0.13356549 0.85524249
6 
Step: 49      Time_fs: 4.7410132799498
 O 0.05886857 -0.30541872 -1.41341168
 O -0.01909267 0.32065562 1.51420577
 H -0.02936342 -1.24994562 -1.34934345
 H -0.38905284 -0.04239240 -2.22405520
 H 0.52091523 0.91749092 1.11794222
 H -0.73386064 0.13299231 0.85555496
6 
Step: 50      Time_fs: 4.83776865301
 O 0.05888379 -0.30526738 -1.41301137
 O -0.01911178 0.32072739 1.51392893
 H -0.02977060 -1.25076341 -1.35280608
 H -0.38929639 -0.04410150 -2.22418904
 H 0.52164311 0.91706028 1.11928174
 H -0.73387588 0.13240834 0.85585214
6 
Step: 51      Time_fs: 4.9345240260702
 O 0.05889732 -0.30511415 -1.41260721
 O -0.01915034 0.32077744 1.51366312
 H -0.03016630 -1.25162024 -1.35629318
 H -0.38953102 -0.04580509 -2.22430407
 H 0.52271000 0.91698840 1.12040713
 H -0.73391525 0.13181400 0.85613289
6 
Step: 52      Time_fs: 5.0312793991304
 O 0.05890906 -0.30495939 -1.41219933
 O -0.01920832 0.32080574 1.51340842
 H -0.03054913 -1.25251255 -1.35980289
 H -0.38975645 -0.04750089 -2.22440016
 H 0.52411585 0.91727516 1.12131835
 H -0.73397883 0.13120973 0.85639601
6 
Step: 53      Time_fs: 5.1280347721906
 O 0.05891890 -0.30480349 -1.41178785
 O -0.01928557 0.32081243 1.51316480
 H -0.03091767 -1.25343651 -1.36333335
 H -0.38997242 -0.04918659 -2.22447723
 H 0.52585800 0.91791757 1.12201715
 H -0.73406664 0.13059598 0.85664024
6 
Step: 54      Time_fs: 5.2247901452508
 O 0.05892674 -0.30464683 -1.41137289
 O -0.01938174 0.32079787 1.51293213
 H -0.03127047 -1.25438809 -1.36688271
 H -0.39017866 -0.05085993 -2.22453525
 H 0.52793121 0.91890982 1.12250703
 H -0.73417866 0.12997320 0.85686427
6 
Step: 55      Time_fs: 5.321545518311
 O 0.05893245 -0.30448981 -1.41095457
 O -0.01949635 0.32076254 1.51271017
 H -0.03160607 -1.25536303 -1.37044908
 H -0.39037490 -0.05251862 -2.22457421
 H 0.53032771 0.92024340 1.12279314
 H -0.73431479 0.12934185 0.85706673
6 
Step: 56      Time_fs: 5.4183008913712
 O 0.05893593 -0.30433286 -1.41053300
 O -0.01962876 0.32070710 1.51249857
 H -0.03192298 -1.25635692 -1.37403057
 H -0.39056089 -0.05416037 -2.22459415
 H 0.53303738 0.92190725 1.12288219
 H -0.73447489 0.12870238 0.85724623
6 
Step: 57      Time_fs: 5.5150562644314
 O 0.05893705 -0.30417640 -1.41010829
 O -0.01977821 0.32063235 1.51229691
 H -0.03221973 -1.25736522 -1.37762528
 H -0.39073637 -0.05578291 -2.22459512
 H 0.53604788 0.92388796 1.12278227
 H -0.73465871 0.12805529 0.85740134
6 
Step: 58      Time_fs: 5.6118116374916
 O 0.05893570 -0.30402084 -1.40968056
 O -0.01994381 0.32053925 1.51210470
 H -0.03249482 -1.25838325 -1.38123125
 H -0.39090109 -0.05738395 -2.22457725
 H 0.53934488 0.92617003 1.12250275
 H -0.73486598 0.12740103 0.85753063
6 
Step: 59      Time_fs: 5.7085670105518
 O 0.05893176 -0.30386662 -1.40924992
 O -0.02012455 0.32042883 1.51192136
 H -0.03274676 -1.25940627 -1.38484655
 H -0.39105483 -0.05896123 -2.22454066
 H 0.54291225 0.92873606 1.12205404
 H -0.73509631 0.12674012 0.85763266
6 
Step: 60      Time_fs: 5.805322383612
 O 0.05892512 -0.30371418 -1.40881648
 O -0.02031934 0.32030225 1.51174627
 H -0.03297406 -1.26042949 -1.38846920
 H -0.39119737 -0.06051249 -2.22448556
 H 0.54673236 0.93156712 1.12144745
 H -0.73534924 0.12607305 0.85770602
6 
Step: 61      Time_fs: 5.9020777566722
 O 0.05891566 -0.30356395 -1.40838035
 O -0.02052702 0.32016074 1.51157875
 H -0.03317524 -1.26144811 -1.39209717
 H -0.39132849 -0.06203547 -2.22441215
 H 0.55078628 0.93464296 1.12069501
 H -0.73562423 0.12540035 0.85774933
6 
Step: 62      Time_fs: 5.9988331297324
 O 0.05890326 -0.30341636 -1.40794164
 O -0.02074636 0.32000559 1.51141811
 H -0.03334883 -1.26245731 -1.39572845
 H -0.39144801 -0.06352792 -2.22432070
 H 0.55505409 0.93794234 1.11980924
 H -0.73592065 0.12472255 0.85776126
6 
Step: 63      Time_fs: 6.0955885027926
 O 0.05888783 -0.30327184 -1.40750047
 O -0.02097609 0.31983814 1.51126359
 H -0.03349337 -1.26345233 -1.39936096
 H -0.39155577 -0.06498760 -2.22421150
 H 0.55951508 0.94144327 1.11880303
 H -0.73623776 0.12404022 0.85774053
6 
Step: 64      Time_fs: 6.1923438758528
 O 0.05886923 -0.30313081 -1.40705693
 O -0.02121492 0.31965976 1.51111447
 H -0.03360743 -1.26442849 -1.40299262
 H -0.39165164 -0.06641228 -2.22408490
 H 0.56414805 0.94512331 1.11768946
 H -0.73657473 0.12335394 0.85768595
6 
Step: 65      Time_fs: 6.289099248913001
 O 0.05884738 -0.30299369 -1.40661114
 O -0.02146154 0.31947182 1.51096997
 H -0.03368959 -1.26538119 -1.40662131
 H -0.39173549 -0.06779973 -2.22394126
 H 0.56893150 0.94895981 1.11648161
 H -0.73693061 0.12266431 0.85759643
6 
Step: 66      Time_fs: 6.3858546219732
 O 0.05882216 -0.30286089 -1.40616321
 O -0.02171466 0.31927570 1.51082935
 H -0.03373848 -1.26630594 -1.41024489
 H -0.39180724 -0.06914776 -2.22378099
 H 0.57384386 0.95293010 1.11519252
 H -0.73730439 0.12197196 0.85747095
6 
Step: 67      Time_fs: 6.482609995033401
 O 0.05879348 -0.30273282 -1.40571324
 O -0.02197297 0.31907275 1.51069185
 H -0.03375273 -1.26719839 -1.41386121
 H -0.39186684 -0.07045416 -2.22360453
 H 0.57886367 0.95701174 1.11383498
 H -0.73769490 0.12127756 0.85730862
6 
Step: 68      Time_fs: 6.5793653680936
 O 0.05876124 -0.30260985 -1.40526136
 O -0.02223522 0.31886432 1.51055674
 H -0.03373101 -1.26805438 -1.41746807
 H -0.39191426 -0.07171675 -2.22341234
 H 0.58396974 0.96118264 1.11242147
 H -0.73810091 0.12058177 0.85710866
6 
Step: 69      Time_fs: 6.676120741153801
 O 0.05872536 -0.30249236 -1.40480766
 O -0.02250017 0.31865170 1.51042330
 H -0.03367205 -1.26886989 -1.42106330
 H -0.39194950 -0.07293338 -2.22320492
 H 0.58914131 0.96542124 1.11096411
 H -0.73852106 0.11988532 0.85687041
6 
Step: 70      Time_fs: 6.772876114214
 O 0.05868574 -0.30238072 -1.40435227
 O -0.02276663 0.31843616 1.51029084
 H -0.03357459 -1.26964113 -1.42464468
 H -0.39197260 -0.07410189 -2.22298280
 H 0.59435817 0.96970663 1.10947452
 H -0.73895389 0.11918893 0.85659333
6 
Step: 71      Time_fs: 6.869631487274201
 O 0.05864231 -0.30227527 -1.40389528
 O -0.02303346 0.31821890 1.51015868
 H -0.03343742 -1.27036451 -1.42821001
 H -0.39198362 -0.07522017 -2.22274650
 H 0.59960073 0.97401863 1.10796385
 H -0.73939787 0.11849337 0.85627703
6 
Step: 72      Time_fs: 6.9663868603344
 O 0.05859499 -0.30217635 -1.40343680
 O -0.02329957 0.31800108 1.51002617
 H -0.03325938 -1.27103668 -1.43175707
 H -0.39198265 -0.07628612 -2.22249659
 H 0.60485016 0.97833790 1.10644268
 H -0.73985135 0.11779941 0.85592122
6 
Step: 73      Time_fs: 7.063142233394601
 O 0.05854371 -0.30208426 -1.40297695
 O -0.02356391 0.31778381 1.50989271
 H -0.03303935 -1.27165450 -1.43528365
 H -0.39196981 -0.07729767 -2.22223363
 H 0.61008836 0.98264595 1.10492104
 H -0.74031258 0.11710786 0.85552575
6 
Step: 74      Time_fs: 7.1598976064548
 O 0.05848840 -0.30199932 -1.40251584
 O -0.02382550 0.31756813 1.50975771
 H -0.03277624 -1.27221513 -1.43878756
 H -0.39194524 -0.07825279 -2.22195819
 H 0.61529811 0.98692523 1.10340835
 H -0.74077976 0.11641953 0.85509059
6 
Step: 75      Time_fs: 7.2566529795150005
 O 0.05842901 -0.30192179 -1.40205356
 O -0.02408344 0.31735501 1.50962060
 H -0.03246904 -1.27271595 -1.44226661
 H -0.39190912 -0.07914945 -2.22167085
 H 0.62046300 0.99115910 1.10191347
 H -0.74125098 0.11573527 0.85461583
6 
Step: 76      Time_fs: 7.3534083525752
 O 0.05836547 -0.30185195 -1.40159023
 O -0.02433685 0.31714540 1.50948086
 H -0.03211677 -1.27315464 -1.44571863
 H -0.39186162 -0.07998569 -2.22137219
 H 0.62556752 0.99533191 1.10044464
 H -0.74172427 0.11505593 0.85410170
6 
Step: 77      Time_fs: 7.4501637256354005
 O 0.05829773 -0.30179002 -1.40112596
 O -0.02458494 0.31694014 1.50933799
 H -0.03171850 -1.27352914 -1.44914148
 H -0.39180297 -0.08075957 -2.22106278
 H 0.63059701 0.99942893 1.09900955
 H -0.74219759 0.11438238 0.85354851
6 
Step: 78      Time_fs: 7.5469190986956
 O 0.05822575 -0.30173623 -1.40066084
 O -0.02482696 0.31674004 1.50919153
 H -0.03127336 -1.27383768 -1.45253306
 H -0.39173336 -0.08146921 -2.22074318
 H 0.63553770 1.00343635 1.09761530
 H -0.74266885 0.11371548 0.85295671
6 
Step: 79      Time_fs: 7.6436744717558005
 O 0.05814948 -0.30169078 -1.40019498
 O -0.02506223 0.31654585 1.50904103
 H -0.03078052 -1.27407879 -1.45589128
 H -0.39165306 -0.08211273 -2.22041394
 H 0.64037665 1.00734129 1.09626847
 H -0.74313588 0.11305612 0.85232683
6 
Step: 80      Time_fs: 7.740429844816
 O 0.05806888 -0.30165385 -1.39972848
 O -0.02529012 0.31635826 1.50888607
 H -0.03023922 -1.27425127 -1.45921411
 H -0.39156229 -0.08268835 -2.22007559
 H 0.64510176 1.01113177 1.09497512
 H -0.74359649 0.11240518 0.85165950
6 
Step: 81      Time_fs: 7.8371852178762005
 O 0.05798393 -0.30162560 -1.39926144
 O -0.02551006 0.31617791 1.50872628
 H -0.02964873 -1.27435423 -1.46249957
 H -0.39146133 -0.08319430 -2.21972863
 H 0.64970176 1.01479663 1.09374079
 H -0.74404844 0.11176356 0.85095545
6 
Step: 82      Time_fs: 7.9339405909364
 O 0.05789459 -0.30160616 -1.39879396
 O -0.02572151 0.31600537 1.50856128
 H -0.02900840 -1.27438708 -1.46574571
 H -0.39135042 -0.08362887 -2.21937355
 H 0.65416611 1.01832555 1.09257056
 H -0.74448946 0.11113212 0.85021548
6 
Step: 83      Time_fs: 8.0306959639966
 O 0.05780083 -0.30159564 -1.39832614
 O -0.02592401 0.31584119 1.50839073
 H -0.02831762 -1.27434952 -1.46895067
 H -0.39122984 -0.08399042 -2.21901080
 H 0.65848506 1.02170899 1.09146908
 H -0.74491725 0.11051177 0.84944048
6 
Step: 84      Time_fs: 8.127451337056801
 O 0.05770262 -0.30159414 -1.39785806
 O -0.02611713 0.31568586 1.50821432
 H -0.02757582 -1.27424156 -1.47211262
 H -0.39109985 -0.08427735 -2.21864079
 H 0.66264957 1.02493816 1.09044055
 H -0.74532951 0.10990336 0.84863140
6 
Step: 85      Time_fs: 8.224206710117
 O 0.05759996 -0.30160173 -1.39738983
 O -0.02630047 0.31553982 1.50803175
 H -0.02678251 -1.27406350 -1.47522981
 H -0.39096071 -0.08448813 -2.21826390
 H 0.66665128 1.02800499 1.08948879
 H -0.74572391 0.10930777 0.84778924
6 
Step: 86      Time_fs: 8.3209620831772
 O 0.05749283 -0.30161846 -1.39692153
 O -0.02647370 0.31540348 1.50784273
 H -0.02593725 -1.27381594 -1.47830056
 H -0.39081269 -0.08462127 -2.21788047
 H 0.67048250 1.03090208 1.08861722
 H -0.74609812 0.10872586 0.84691507
6 
Step: 87      Time_fs: 8.4177174562374
 O 0.05738120 -0.30164434 -1.39645325
 O -0.02663652 0.31527720 1.50764702
 H -0.02503962 -1.27349977 -1.48132327
 H -0.39065603 -0.08467539 -2.21749080
 H 0.67413615 1.03362267 1.08782895
 H -0.74644985 0.10815845 0.84600999
6 
Step: 88      Time_fs: 8.5144728292976
 O 0.05726508 -0.30167938 -1.39598508
 O -0.02678865 0.31516131 1.50744436
 H -0.02408930 -1.27311616 -1.48429641
 H -0.39049098 -0.08464912 -2.21709512
 H 0.67760575 1.03616063 1.08712672
 H -0.74677677 0.10760639 0.84507516
6 
Step: 89      Time_fs: 8.6112282023578
 O 0.05714444 -0.30172357 -1.39551710
 O -0.02692987 0.31505610 1.50723454
 H -0.02308599 -1.27266660 -1.48721856
 H -0.39031777 -0.08454121 -2.21669363
 H 0.68088539 1.03851038 1.08651299
 H -0.74707661 0.10707046 0.84411175
6 
Step: 90      Time_fs: 8.707983575418
 O 0.05701930 -0.30177685 -1.39504938
 O -0.02705997 0.31496184 1.50701735
 H -0.02202944 -1.27215282 -1.49008834
 H -0.39013661 -0.08435046 -2.21628647
 H 0.68396970 1.04066693 1.08598990
 H -0.74734712 0.10655147 0.84312095
6 
Step: 91      Time_fs: 8.8047389484782
 O 0.05688963 -0.30183917 -1.39458202
 O -0.02717878 0.31487874 1.50679259
 H -0.02091948 -1.27157685 -1.49290452
 H -0.38994772 -0.08407573 -2.21587373
 H 0.68685382 1.04262577 1.08555934
 H -0.74758608 0.10605017 0.84210398
6 
Step: 92      Time_fs: 8.9014943215384
 O 0.05675545 -0.30191044 -1.39411507
 O -0.02728616 0.31480700 1.50656010
 H -0.01975594 -1.27094098 -1.49566592
 H -0.38975128 -0.08371599 -2.21545543
 H 0.68953339 1.04438290 1.08522295
 H -0.74779131 0.10556731 0.84106207
6 
Step: 93      Time_fs: 8.9982496945986
 O 0.05661675 -0.30199055 -1.39364862
 O -0.02738200 0.31474681 1.50631970
 H -0.01853875 -1.27024776 -1.49837147
 H -0.38954745 -0.08327027 -2.21503155
 H 0.69200450 1.04593480 1.08498210
 H -0.74796069 0.10510359 0.83999643
6 
Step: 94      Time_fs: 9.0950050676588
 O 0.05647354 -0.30207938 -1.39318274
 O -0.02746620 0.31469829 1.50607126
 H -0.01726786 -1.26949998 -1.50102023
 H -0.38933638 -0.08273767 -2.21460199
 H 0.69426371 1.04727839 1.08483795
 H -0.74809215 0.10465969 0.83890830
6 
Step: 95      Time_fs: 9.191760440719
 O 0.05632582 -0.30217678 -1.39271748
 O -0.02753869 0.31466158 1.50581463
 H -0.01594326 -1.26870071 -1.50361132
 H -0.38911820 -0.08211741 -2.21416659
 H 0.69630798 1.04841101 1.08479145
 H -0.74818367 0.10423628 0.83779887
6 
Step: 96      Time_fs: 9.2885158137792
 O 0.05617359 -0.30228259 -1.39225291
 O -0.02759944 0.31463677 1.50554970
 H -0.01456499 -1.26785320 -1.50614399
 H -0.38889302 -0.08140876 -2.21372514
 H 0.69813471 1.04933042 1.08484334
 H -0.74823330 0.10383397 0.83666934
6 
Step: 97      Time_fs: 9.3852711868394
 O 0.05601686 -0.30239660 -1.39178909
 O -0.02764841 0.31462393 1.50527636
 H -0.01313315 -1.26696096 -1.50861760
 H -0.38866090 -0.08061111 -2.21327734
 H 0.69974169 1.05003479 1.08499416
 H -0.74823919 0.10345335 0.83552088
6 
Step: 98      Time_fs: 9.4820265598996
 O 0.05585565 -0.30251863 -1.39132608
 O -0.02768560 0.31462311 1.50499452
 H -0.01164785 -1.26602767 -1.51103162
 H -0.38842192 -0.07972390 -2.21282286
 H 0.70112710 1.05052266 1.08524426
 H -0.74819953 0.10309497 0.83435463
6 
Step: 99      Time_fs: 9.578781932959801
 O 0.05568995 -0.30264845 -1.39086393
 O -0.02771103 0.31463434 1.50470409
 H -0.01010927 -1.26505724 -1.51338562
 H -0.38817609 -0.07874670 -2.21236128
 H 0.70228950 1.05079294 1.08559382
 H -0.74811261 0.10275934 0.83317169
6 
Step: 100      Time_fs: 9.67553730602
 O 0.05551977 -0.30278581 -1.39040268
 O -0.02772472 0.31465763 1.50440501
 H -0.00851760 -1.26405373 -1.51567930
 H -0.38792342 -0.07767916 -2.21189212
 H 0.70322784 1.05084491 1.08604284
 H -0.74797681 0.10244695 0.83197312
6 
Step: 101      Time_fs: 9.7722926790802
 O 0.05534514 -0.30293046 -1.38994239
 O -0.02772673 0.31469297 1.50409723
 H -0.00687308 -1.26302138 -1.51791245
 H -0.38766389 -0.07652102 -2.21141484
 H 0.70394141 1.05067823 1.08659113
 H -0.74779060 0.10215823 0.83075997
6 
Step: 102      Time_fs: 9.8690480521404
 O 0.05516605 -0.30308213 -1.38948308
 O -0.02771711 0.31474033 1.50378069
 H -0.00517600 -1.26196456 -1.52008500
 H -0.38739745 -0.07527213 -2.21092884
 H 0.70442990 1.05029289 1.08723835
 H -0.74755255 0.10189358 0.82953319
6 
Step: 103      Time_fs: 9.965803425200601
 O 0.05498252 -0.30324054 -1.38902481
 O -0.02769597 0.31479966 1.50345538
 H -0.00342664 -1.26088778 -1.52219698
 H -0.38712403 -0.07393242 -2.21043344
 H 0.70469335 1.04968928 1.08798397
 H -0.74726131 0.10165334 0.82829372
6 
Step: 104      Time_fs: 10.0625587982608
 O 0.05479456 -0.30340538 -1.38856761
 O -0.02766338 0.31487089 1.50312127
 H -0.00162535 -1.25979566 -1.52424853
 H -0.38684352 -0.07250194 -2.20992793
 H 0.70473218 1.04886810 1.08882731
 H -0.74691564 0.10143785 0.82704242
6 
Step: 105      Time_fs: 10.159314171321
 O 0.05460218 -0.30357635 -1.38811149
 O -0.02761948 0.31495393 1.50277837
 H 0.00022751 -1.25869289 -1.52623989
 H -0.38655579 -0.07098084 -2.20941152
 H 0.70454720 1.04783046 1.08976750
 H -0.74651443 0.10124735 0.82578011
6 
Step: 106      Time_fs: 10.2560695443812
 O 0.05440539 -0.30375312 -1.38765650
 O -0.02756440 0.31504866 1.50242670
 H 0.00213156 -1.25758424 -1.52817144
 H -0.38626070 -0.06936934 -2.20888337
 H 0.70413957 1.04657781 1.09080350
 H -0.74605666 0.10108207 0.82450754
6 
Step: 107      Time_fs: 10.352824917441401
 O 0.05420420 -0.30393537 -1.38720264
 O -0.02749828 0.31515495 1.50206627
 H 0.00408637 -1.25647453 -1.53004364
 H -0.38595806 -0.06766782 -2.20834259
 H 0.70351089 1.04511202 1.09193409
 H -0.74554140 0.10094220 0.82322540
6 
Step: 108      Time_fs: 10.4495802905016
 O 0.05399863 -0.30412275 -1.38674994
 O -0.02742131 0.31527266 1.50169713
 H 0.00609151 -1.25536859 -1.53185707
 H -0.38564768 -0.06587670 -2.20778823
 H 0.70266315 1.04343531 1.09315786
 H -0.74496787 0.10082786 0.82193430
6 
Step: 109      Time_fs: 10.5463356635618
 O 0.05378868 -0.30431492 -1.38629842
 O -0.02733368 0.31540159 1.50131936
 H 0.00814653 -1.25427126 -1.53361240
 H -0.38532932 -0.06399656 -2.20721931
 H 0.70159876 1.04155033 1.09447320
 H -0.74433538 0.10073914 0.82063481
6 
Step: 110      Time_fs: 10.643091036622
 O 0.05357437 -0.30451154 -1.38584807
 O -0.02723559 0.31554156 1.50093301
 H 0.01025094 -1.25318736 -1.53531041
 H -0.38500275 -0.06202805 -2.20663480
 H 0.70032058 1.03946016 1.09587830
 H -0.74364336 0.10067607 0.81932740
6 
Step: 111      Time_fs: 10.739846409682201
 O 0.05335570 -0.30471224 -1.38539891
 O -0.02712728 0.31569233 1.50053818
 H 0.01240426 -1.25212163 -1.53695197
 H -0.38466768 -0.05997194 -2.20603361
 H 0.69883194 1.03716832 1.09737117
 H -0.74289138 0.10063863 0.81801248
6 
Step: 112      Time_fs: 10.8366017827424
 O 0.05313269 -0.30491668 -1.38495094
 O -0.02700901 0.31585366 1.50013499
 H 0.01460596 -1.25107876 -1.53853803
 H -0.38432384 -0.05782910 -2.20541464
 H 0.69713664 1.03467878 1.09894954