6 
Step: 1      Time_fs:0.0967553730602
 O 0.00000076 0.00000035 0.00000541
 O 0.00000455 0.00000677 -0.00000721
 H -0.00000732 0.00001808 -0.00004764
 H -0.00000905 -0.00002436 -0.00001222
 H -0.00007896 -0.00010290 0.00007740
 H 0.00001118 -0.00000388 0.00001112
6 
Step: 2      Time_fs:0.1935107461204
 O 0.00000151 0.00000072 0.00001081
 O 0.00000909 0.00001353 -0.00001442
 H -0.00001463 0.00003603 -0.00009522
 H -0.00001807 -0.00004870 -0.00002439
 H -0.00015779 -0.00020564 0.00015469
 H 0.00002231 -0.00000776 0.00002221
6 
Step: 3      Time_fs:0.2902661191806
 O 0.00000226 0.00000109 0.00001620
 O 0.00001361 0.00002027 -0.00002160
 H -0.00002194 0.00005373 -0.00014271
 H -0.00002702 -0.00007302 -0.00003646
 H -0.00023632 -0.00030804 0.00023177
 H 0.00003335 -0.00001167 0.00003323
6 
Step: 4      Time_fs:0.3870214922408
 O 0.00000300 0.00000149 0.00002157
 O 0.00001812 0.00002698 -0.00002877
 H -0.00002922 0.00007106 -0.00019005
 H -0.00003589 -0.00009730 -0.00004838
 H -0.00031443 -0.00040993 0.00030853
 H 0.00004425 -0.00001561 0.00004414
6 
Step: 5      Time_fs:0.483776865301
 O 0.00000373 0.00000191 0.00002691
 O 0.00002261 0.00003365 -0.00003589
 H -0.00003649 0.00008790 -0.00023718
 H -0.00004463 -0.00012154 -0.00006011
 H -0.00039195 -0.00051115 0.00038486
 H 0.00005498 -0.00001959 0.00005492
6 
Step: 6      Time_fs:0.5805322383612
 O 0.00000445 0.00000237 0.00003223
 O 0.00002706 0.00004026 -0.00004297
 H -0.00004373 0.00010412 -0.00028407
 H -0.00005323 -0.00014571 -0.00007160
 H -0.00046875 -0.00061151 0.00046064
 H 0.00006548 -0.00002361 0.00006554
6 
Step: 7      Time_fs:0.6772876114214
 O 0.00000516 0.00000287 0.00003751
 O 0.00003147 0.00004682 -0.00005000
 H -0.00005093 0.00011961 -0.00033065
 H -0.00006164 -0.00016980 -0.00008281
 H -0.00054466 -0.00071083 0.00053576
 H 0.00007572 -0.00002770 0.00007595
6 
Step: 8      Time_fs:0.7740429844816
 O 0.00000586 0.00000341 0.00004275
 O 0.00003584 0.00005331 -0.00005696
 H -0.00005810 0.00013425 -0.00037689
 H -0.00006985 -0.00019381 -0.00009368
 H -0.00061952 -0.00080893 0.00061009
 H 0.00008565 -0.00003186 0.00008613
6 
Step: 9      Time_fs:0.8707983575418
 O 0.00000653 0.00000401 0.00004794
 O 0.00004015 0.00005971 -0.00006386
 H -0.00006522 0.00014795 -0.00042275
 H -0.00007783 -0.00021771 -0.00010418
 H -0.00069316 -0.00090560 0.00068351
 H 0.00009524 -0.00003610 0.00009606
6 
Step: 10      Time_fs:0.967553730602
 O 0.00000719 0.00000467 0.00005308
 O 0.00004439 0.00006602 -0.00007067
 H -0.00007229 0.00016058 -0.00046816
 H -0.00008554 -0.00024149 -0.00011426
 H -0.00076541 -0.00100063 0.00075589
 H 0.00010443 -0.00004042 0.00010569
6 
Step: 11      Time_fs:1.0643091036622
 O 0.00000783 0.00000539 0.00005816
 O 0.00004857 0.00007222 -0.00007738
 H -0.00007930 0.00017205 -0.00051310
 H -0.00009298 -0.00026513 -0.00012390
 H -0.00083608 -0.00109383 0.00082709
 H 0.00011320 -0.00004484 0.00011500
6 
Step: 12      Time_fs:1.1610644767224
 O 0.00000844 0.00000617 0.00006318
 O 0.00005266 0.00007829 -0.00008399
 H -0.00008625 0.00018227 -0.00055751
 H -0.00010012 -0.00028861 -0.00013305
 H -0.00090497 -0.00118495 0.00089695
 H 0.00012150 -0.00004936 0.00012397
6 
Step: 13      Time_fs:1.2578198497826
 O 0.00000903 0.00000703 0.00006813
 O 0.00005666 0.00008423 -0.00009049
 H -0.00009313 0.00019114 -0.00060137
 H -0.00010693 -0.00031192 -0.00014168
 H -0.00097189 -0.00127375 0.00096532
 H 0.00012931 -0.00005400 0.00013258
6 
Step: 14      Time_fs:1.3545752228428
 O 0.00000959 0.00000797 0.00007302
 O 0.00006055 0.00009001 -0.00009686
 H -0.00009993 0.00019859 -0.00064462
 H -0.00011341 -0.00033504 -0.00014977
 H -0.00103661 -0.00136000 0.00103204
 H 0.00013658 -0.00005874 0.00014079
6 
Step: 15      Time_fs:1.451330595903
 O 0.00001013 0.00000898 0.00007783
 O 0.00006432 0.00009562 -0.00010309
 H -0.00010665 0.00020454 -0.00068724
 H -0.00011952 -0.00035793 -0.00015728
 H -0.00109891 -0.00144342 0.00109694
 H 0.00014329 -0.00006361 0.00014859
6 
Step: 16      Time_fs:1.5480859689632
 O 0.00001064 0.00001008 0.00008256
 O 0.00006796 0.00010105 -0.00010917
 H -0.00011327 0.00020893 -0.00072919
 H -0.00012526 -0.00038059 -0.00016419
 H -0.00115855 -0.00152374 0.00115982
 H 0.00014941 -0.00006861 0.00015595
6 
Step: 17      Time_fs:1.6448413420234
 O 0.00001112 0.00001126 0.00008720
 O 0.00007146 0.00010628 -0.00011508
 H -0.00011979 0.00021169 -0.00077043
 H -0.00013062 -0.00040299 -0.00017047
 H -0.00121527 -0.00160065 0.00122050
 H 0.00015491 -0.00007374 0.00016287
6 
Step: 18      Time_fs:1.7415967150836
 O 0.00001156 0.00001253 0.00009177
 O 0.00007480 0.00011128 -0.00012081
 H -0.00012619 0.00021278 -0.00081094
 H -0.00013558 -0.00042510 -0.00017612
 H -0.00126880 -0.00167386 0.00127877
 H 0.00015977 -0.00007900 0.00016933
6 
Step: 19      Time_fs:1.8383520881438
 O 0.00001198 0.00001388 0.00009624
 O 0.00007796 0.00011604 -0.00012635
 H -0.00013248 0.00021215 -0.00085069
 H -0.00014014 -0.00044690 -0.00018112
 H -0.00131886 -0.00174303 0.00133441
 H 0.00016397 -0.00008440 0.00017530
6 
Step: 20      Time_fs:1.935107461204
 O 0.00001236 0.00001532 0.00010063
 O 0.00008092 0.00012053 -0.00013168
 H -0.00013864 0.00020978 -0.00088965
 H -0.00014429 -0.00046836 -0.00018544
 H -0.00136515 -0.00180783 0.00138720
 H 0.00016748 -0.00008993 0.00018079
6 
Step: 21      Time_fs:2.0318628342642002
 O 0.00001271 0.00001685 0.00010493
 O 0.00008367 0.00012473 -0.00013679
 H -0.00014465 0.00020564 -0.00092781
 H -0.00014802 -0.00048945 -0.00018910
 H -0.00140737 -0.00186789 0.00143690
 H 0.00017029 -0.00009561 0.00018579
6 
Step: 22      Time_fs:2.1286182073244
 O 0.00001302 0.00001846 0.00010913
 O 0.00008618 0.00012863 -0.00014166
 H -0.00015051 0.00019974 -0.00096512
 H -0.00015134 -0.00051015 -0.00019207
 H -0.00144518 -0.00192283 0.00148325
 H 0.00017239 -0.00010142 0.00019028
6 
Step: 23      Time_fs:2.2253735803846
 O 0.00001330 0.00002015 0.00011323
 O 0.00008844 0.00013218 -0.00014627
 H -0.00015621 0.00019205 -0.00100159
 H -0.00015424 -0.00053043 -0.00019436
 H -0.00147824 -0.00197228 0.00152601
 H 0.00017377 -0.00010736 0.00019427
6 
Step: 24      Time_fs:2.3221289534448
 O 0.00001354 0.00002193 0.00011725
 O 0.00009042 0.00013538 -0.00015060
 H -0.00016174 0.00018261 -0.00103719
 H -0.00015672 -0.00055025 -0.00019598
 H -0.00150620 -0.00201582 0.00156489
 H 0.00017443 -0.00011343 0.00019775
6 
Step: 25      Time_fs:2.418884326505
 O 0.00001375 0.00002378 0.00012116
 O 0.00009210 0.00013818 -0.00015465
 H -0.00016707 0.00017143 -0.00107190
 H -0.00015879 -0.00056958 -0.00019691
 H -0.00152868 -0.00205304 0.00159962
 H 0.00017435 -0.00011963 0.00020073
6 
Step: 26      Time_fs:2.5156396995652
 O 0.00001392 0.00002570 0.00012498
 O 0.00009346 0.00014058 -0.00015838
 H -0.00017221 0.00015855 -0.00110572
 H -0.00016046 -0.00058840 -0.00019718
 H -0.00154532 -0.00208350 0.00162991
 H 0.00017354 -0.00012595 0.00020321
6 
Step: 27      Time_fs:2.6123950726254
 O 0.00001406 0.00002769 0.00012870
 O 0.00009447 0.00014252 -0.00016179
 H -0.00017712 0.00014401 -0.00113863
 H -0.00016173 -0.00060667 -0.00019679
 H -0.00155573 -0.00210677 0.00165547
 H 0.00017200 -0.00013238 0.00020519
6 
Step: 28      Time_fs:2.7091504456856
 O 0.00001415 0.00002974 0.00013232
 O 0.00009510 0.00014400 -0.00016485
 H -0.00018181 0.00012788 -0.00117063
 H -0.00016262 -0.00062435 -0.00019575
 H -0.00155952 -0.00212242 0.00167601
 H 0.00016974 -0.00013891 0.00020668
6 
Step: 29      Time_fs:2.8059058187458
 O 0.00001422 0.00003185 0.00013585
 O 0.00009533 0.00014498 -0.00016755
 H -0.00018625 0.00011022 -0.00120170
 H -0.00016312 -0.00064142 -0.00019409
 H -0.00155629 -0.00213000 0.00169123
 H 0.00016677 -0.00014554 0.00020770
6 
Step: 30      Time_fs:2.902661191806
 O 0.00001424 0.00003400 0.00013928
 O 0.00009514 0.00014543 -0.00016986
 H -0.00019042 0.00009111 -0.00123185
 H -0.00016327 -0.00065784 -0.00019181
 H -0.00154566 -0.00212909 0.00170085
 H 0.00016311 -0.00015224 0.00020826
6 
Step: 31      Time_fs:2.9994165648662
 O 0.00001423 0.00003620 0.00014262
 O 0.00009450 0.00014532 -0.00017178
 H -0.00019432 0.00007064 -0.00126106
 H -0.00016306 -0.00067358 -0.00018895
 H -0.00152727 -0.00211926 0.00170458
 H 0.00015877 -0.00015901 0.00020836
6 
Step: 32      Time_fs:3.0961719379264
 O 0.00001418 0.00003842 0.00014586
 O 0.00009339 0.00014463 -0.00017329
 H -0.00019792 0.00004892 -0.00128934
 H -0.00016252 -0.00068860 -0.00018552
 H -0.00150075 -0.00210013 0.00170218
 H 0.00015377 -0.00016583 0.00020802
6 
Step: 33      Time_fs:3.1929273109866
 O 0.00001410 0.00004067 0.00014901
 O 0.00009177 0.00014334 -0.00017436
 H -0.00020120 0.00002606 -0.00131669
 H -0.00016167 -0.00070288 -0.00018154
 H -0.00146577 -0.00207134 0.00169339
 H 0.00014815 -0.00017269 0.00020727
6 
Step: 34      Time_fs:3.2896826840468
 O 0.00001398 0.00004293 0.00015207
 O 0.00008965 0.00014143 -0.00017499
 H -0.00020415 0.00000218 -0.00134310
 H -0.00016051 -0.00071639 -0.00017705
 H -0.00142205 -0.00203255 0.00167802
 H 0.00014191 -0.00017956 0.00020610
6 
Step: 35      Time_fs:3.386438057107
 O 0.00001382 0.00004520 0.00015503
 O 0.00008698 0.00013887 -0.00017518
 H -0.00020675 -0.00002260 -0.00136858
 H -0.00015906 -0.00072908 -0.00017207
 H -0.00136932 -0.00198352 0.00165588
 H 0.00013510 -0.00018644 0.00020454
6 
Step: 36      Time_fs:3.4831934301672
 O 0.00001362 0.00004746 0.00015791
 O 0.00008377 0.00013565 -0.00017490
 H -0.00020897 -0.00004813 -0.00139313
 H -0.00015735 -0.00074094 -0.00016664
 H -0.00130740 -0.00192403 0.00162685
 H 0.00012775 -0.00019330 0.00020260
6 
Step: 37      Time_fs:3.5799488032274
 O 0.00001339 0.00004969 0.00016070
 O 0.00008000 0.00013176 -0.00017416
 H -0.00021080 -0.00007426 -0.00141676
 H -0.00015538 -0.00075193 -0.00016077
 H -0.00123616 -0.00185396 0.00159085
 H 0.00011988 -0.00020013 0.00020029
6 
Step: 38      Time_fs:3.6767041762876
 O 0.00001312 0.00005190 0.00016341
 O 0.00007567 0.00012721 -0.00017296
 H -0.00021222 -0.00010086 -0.00143946
 H -0.00015318 -0.00076203 -0.00015451
 H -0.00115554 -0.00177326 0.00154785
 H 0.00011154 -0.00020690 0.00019763
6 
Step: 39      Time_fs:3.7734595493478
 O 0.00001282 0.00005407 0.00016604
 O 0.00007077 0.00012199 -0.00017129
 H -0.00021321 -0.00012774 -0.00146124
 H -0.00015076 -0.00077121 -0.00014787
 H -0.00106557 -0.00168200 0.00149791
 H 0.00010275 -0.00021360 0.00019461
6 
Step: 40      Time_fs:3.870214922408
 O 0.00001248 0.00005619 0.00016858
 O 0.00006531 0.00011611 -0.00016917
 H -0.00021374 -0.00015477 -0.00148210
 H -0.00014814 -0.00077945 -0.00014090
 H -0.00096637 -0.00158033 0.00144113
 H 0.00009357 -0.00022021 0.00019125
6 
Step: 41      Time_fs:3.9669702954682
 O 0.00001210 0.00005824 0.00017104
 O 0.00005930 0.00010958 -0.00016661
 H -0.00021379 -0.00018176 -0.00150206
 H -0.00014533 -0.00078672 -0.00013362
 H -0.00085819 -0.00146856 0.00137772
 H 0.00008401 -0.00022672 0.00018753
6 
Step: 42      Time_fs:4.0637256685284004
 O 0.00001168 0.00006021 0.00017343
 O 0.00005277 0.00010244 -0.00016362
 H -0.00021336 -0.00020855 -0.00152112
 H -0.00014233 -0.00079301 -0.00012607
 H -0.00074136 -0.00134709 0.00130796
 H 0.00007412 -0.00023311 0.00018347
6 
Step: 43      Time_fs:4.1604810415886
 O 0.00001122 0.00006210 0.00017575
 O 0.00004574 0.00009471 -0.00016023
 H -0.00021240 -0.00023497 -0.00153928
 H -0.00013917 -0.00079829 -0.00011826
 H -0.00061635 -0.00121647 0.00123221
 H 0.00006394 -0.00023936 0.00017905
6 
Step: 44      Time_fs:4.2572364146488
 O 0.00001072 0.00006389 0.00017799
 O 0.00003824 0.00008645 -0.00015647
 H -0.00021091 -0.00026085 -0.00155654
 H -0.00013585 -0.00080256 -0.00011024
 H -0.00048376 -0.00107738 0.00115093
 H 0.00005350 -0.00024546 0.00017426
6 
Step: 45      Time_fs:4.353991787709
 O 0.00001017 0.00006557 0.00018016
 O 0.00003032 0.00007769 -0.00015236
 H -0.00020886 -0.00028602 -0.00157292
 H -0.00013238 -0.00080579 -0.00010201
 H -0.00034429 -0.00093064 0.00106465
 H 0.00004282 -0.00025139 0.00016908
6 
Step: 46      Time_fs:4.4507471607692
 O 0.00000959 0.00006712 0.00018226
 O 0.00002203 0.00006849 -0.00014796
 H -0.00020624 -0.00031031 -0.00158842
 H -0.00012877 -0.00080799 -0.00009362
 H -0.00019875 -0.00077718 0.00097400
 H 0.00003195 -0.00025716 0.00016349
6 
Step: 47      Time_fs:4.5475025338294
 O 0.00000896 0.00006855 0.00018430
 O 0.00001342 0.00005893 -0.00014329
 H -0.00020302 -0.00033357 -0.00160303
 H -0.00012501 -0.00080912 -0.00008508
 H -0.00004809 -0.00061806 0.00087966
 H 0.00002092 -0.00026274 0.00015747
6 
Step: 48      Time_fs:4.6442579068896
 O 0.00000828 0.00006984 0.00018627
 O 0.00000456 0.00004907 -0.00013840
 H -0.00019920 -0.00035563 -0.00161678
 H -0.00012113 -0.00080920 -0.00007641
 H 0.00010666 -0.00045444 0.00078238
 H 0.00000974 -0.00026814 0.00015099
6 
Step: 49      Time_fs:4.7410132799498
 O 0.00000756 0.00007097 0.00018818
 O -0.00000447 0.00003899 -0.00013335
 H -0.00019475 -0.00037634 -0.00162964
 H -0.00011711 -0.00080820 -0.00006764
 H 0.00026440 -0.00028755 0.00068297
 H -0.00000154 -0.00027334 0.00014401
6 
Step: 50      Time_fs:4.83776865301
 O 0.00000679 0.00007194 0.00019003
 O -0.00001362 0.00002878 -0.00012818
 H -0.00018965 -0.00039557 -0.00164164
 H -0.00011295 -0.00080613 -0.00005879
 H 0.00042395 -0.00011870 0.00058225
 H -0.00001290 -0.00027834 0.00013652
6 
Step: 51      Time_fs:4.9345240260702
 O 0.00000597 0.00007275 0.00019182
 O -0.00002280 0.00001851 -0.00012295
 H -0.00018390 -0.00041317 -0.00165276
 H -0.00010867 -0.00080299 -0.00004987
 H 0.00058410 0.00005076 0.00048108
 H -0.00002432 -0.00028313 0.00012847
6 
Step: 52      Time_fs:5.0312793991304
 O 0.00000510 0.00007338 0.00019355
 O -0.00003194 0.00000827 -0.00011771
 H -0.00017749 -0.00042903 -0.00166300
 H -0.00010427 -0.00079876 -0.00004090
 H 0.00074361 0.00021948 0.00038031
 H -0.00003576 -0.00028771 0.00011984
6 
Step: 53      Time_fs:5.1280347721906
 O 0.00000418 0.00007383 0.00019522
 O -0.00004096 -0.00000186 -0.00011251
 H -0.00017039 -0.00044303 -0.00167237
 H -0.00009973 -0.00079346 -0.00003191
 H 0.00090125 0.00038613 0.00028079
 H -0.00004720 -0.00029209 0.00011061
6 
Step: 54      Time_fs:5.2247901452508
 O 0.00000320 0.00007409 0.00019683
 O -0.00004979 -0.00001179 -0.00010739
 H -0.00016261 -0.00045507 -0.00168085
 H -0.00009507 -0.00078708 -0.00002291
 H 0.00105581 0.00054940 0.00018330
 H -0.00005862 -0.00029625 0.00010074
6 
Step: 55      Time_fs:5.321545518311
 O 0.00000217 0.00007416 0.00019840
 O -0.00005835 -0.00002144 -0.00010242
 H -0.00015413 -0.00046507 -0.00168844
 H -0.00009029 -0.00077962 -0.00001391
 H 0.00120616 0.00070804 0.00008862
 H -0.00006997 -0.00030019 0.00009022
6 
Step: 56      Time_fs:5.4183008913712
 O 0.00000109 0.00007403 0.00019990
 O -0.00006658 -0.00003075 -0.00009762
 H -0.00014496 -0.00047295 -0.00169513
 H -0.00008538 -0.00077108 -0.00000494
 H 0.00135119 0.00086090 -0.00000257
 H -0.00008124 -0.00030391 0.00007904
6 
Step: 57      Time_fs:5.5150562644314
 O -0.00000005 0.00007371 0.00020136
 O -0.00007442 -0.00003965 -0.00009304
 H -0.00013508 -0.00047865 -0.00170091
 H -0.00008036 -0.00076146 0.00000399
 H 0.00148993 0.00100694 -0.00008963
 H -0.00009238 -0.00030740 0.00006718
6 
Step: 58      Time_fs:5.6118116374916
 O -0.00000125 0.00007317 0.00020276
 O -0.00008181 -0.00004808 -0.00008871
 H -0.00012449 -0.00048213 -0.00170578
 H -0.00007523 -0.00075077 0.00001286
 H 0.00162147 0.00114520 -0.00017202
 H -0.00010337 -0.00031066 0.00005464
6 
Step: 59      Time_fs:5.7085670105518
 O -0.00000250 0.00007244 0.00020411
 O -0.00008871 -0.00005598 -0.00008467
 H -0.00011320 -0.00048336 -0.00170972
 H -0.00006998 -0.00073901 0.00002166
 H 0.00174504 0.00127488 -0.00024928
 H -0.00011415 -0.00031369 0.00004143
6 
Step: 60      Time_fs:5.805322383612
 O -0.00000380 0.00007150 0.00020541
 O -0.00009507 -0.00006333 -0.00008093
 H -0.00010121 -0.00048231 -0.00171271
 H -0.00006464 -0.00072618 0.00003036
 H 0.00185997 0.00139530 -0.00032102
 H -0.00012470 -0.00031648 0.00002756
6 
Step: 61      Time_fs:5.9020777566722
 O -0.00000516 0.00007035 0.00020665
 O -0.00010087 -0.00007007 -0.00007752
 H -0.00008853 -0.00047900 -0.00171475
 H -0.00005921 -0.00071229 0.00003894
 H 0.00196572 0.00150593 -0.00038697
 H -0.00013498 -0.00031901 0.00001305
6 
Step: 62      Time_fs:5.9988331297324
 O -0.00000657 0.00006900 0.00020784
 O -0.00010608 -0.00007620 -0.00007445
 H -0.00007515 -0.00047343 -0.00171582
 H -0.00005369 -0.00069734 0.00004740
 H 0.00206188 0.00160634 -0.00044691
 H -0.00014492 -0.00032128 -0.00000208
6 
Step: 63      Time_fs:6.0955885027926
 O -0.00000804 0.00006745 0.00020898
 O -0.00011068 -0.00008169 -0.00007172
 H -0.00006109 -0.00046563 -0.00171591
 H -0.00004810 -0.00068133 0.00005570
 H 0.00214814 0.00169626 -0.00050073
 H -0.00015450 -0.00032329 -0.00001779
6 
Step: 64      Time_fs:6.1923438758528
 O -0.00000955 0.00006570 0.00021007
 O -0.00011467 -0.00008653 -0.00006936
 H -0.00004635 -0.00045563 -0.00171501
 H -0.00004245 -0.00066427 0.00006384
 H 0.00222431 0.00177553 -0.00054836
 H -0.00016366 -0.00032501 -0.00003404
6 
Step: 65      Time_fs:6.289099248913001
 O -0.00001112 0.00006376 0.00021111
 O -0.00011805 -0.00009072 -0.00006735
 H -0.00003096 -0.00044348 -0.00171310
 H -0.00003676 -0.00064616 0.00007179
 H 0.00229030 0.00184409 -0.00058981
 H -0.00017236 -0.00032644 -0.00005079
6 
Step: 66      Time_fs:6.3858546219732
 O -0.00001273 0.00006162 0.00021210
 O -0.00012081 -0.00009427 -0.00006570
 H -0.00001491 -0.00042925 -0.00171018
 H -0.00003103 -0.00062702 0.00007954
 H 0.00234613 0.00190199 -0.00062518
 H -0.00018054 -0.00032757 -0.00006799
6 
Step: 67      Time_fs:6.482609995033401
 O -0.00001439 0.00005930 0.00021303
 O -0.00012297 -0.00009717 -0.00006439
 H 0.00000176 -0.00041301 -0.00170623
 H -0.00002528 -0.00060684 0.00008708
 H 0.00239189 0.00194938 -0.00065457
 H -0.00018815 -0.00032838 -0.00008558
6 
Step: 68      Time_fs:6.5793653680936
 O -0.00001609 0.00005680 0.00021391
 O -0.00012453 -0.00009946 -0.00006344
 H 0.00001906 -0.00039483 -0.00170125
 H -0.00001953 -0.00058563 0.00009439
 H 0.00242774 0.00198646 -0.00067815
 H -0.00019515 -0.00032887 -0.00010351
6 
Step: 69      Time_fs:6.676120741153801
 O -0.00001783 0.00005412 0.00021474
 O -0.00012553 -0.00010114 -0.00006281
 H 0.00003695 -0.00037482 -0.00169523
 H -0.00001378 -0.00056341 0.00010146
 H 0.00245391 0.00201350 -0.00069612
 H -0.00020149 -0.00032901 -0.00012173
6 
Step: 70      Time_fs:6.772876114214
 O -0.00001962 0.00005128 0.00021552
 O -0.00012597 -0.00010224 -0.00006251
 H 0.00005542 -0.00035305 -0.00168817
 H -0.00000806 -0.00054018 0.00010829
 H 0.00247068 0.00203084 -0.00070871
 H -0.00020712 -0.00032880 -0.00014016
6 
Step: 71      Time_fs:6.869631487274201
 O -0.00002144 0.00004828 0.00021625
 O -0.00012589 -0.00010277 -0.00006252
 H 0.00007446 -0.00032965 -0.00168006
 H -0.00000237 -0.00051595 0.00011485
 H 0.00247837 0.00203884 -0.00071617
 H -0.00021199 -0.00032823 -0.00015876
6 
Step: 72      Time_fs:6.9663868603344
 O -0.00002329 0.00004512 0.00021692
 O -0.00012530 -0.00010277 -0.00006283
 H 0.00009403 -0.00030472 -0.00167091
 H 0.00000326 -0.00049074 0.00012115
 H 0.00247734 0.00203791 -0.00071876
 H -0.00021607 -0.00032728 -0.00017747
6 
Step: 73      Time_fs:7.063142233394601
 O -0.00002518 0.00004182 0.00021755
 O -0.00012423 -0.00010227 -0.00006342
 H 0.00011413 -0.00027837 -0.00166071
 H 0.00000884 -0.00046456 0.00012718
 H 0.00246797 0.00202846 -0.00071676
 H -0.00021931 -0.00032595 -0.00019621
6 
Step: 74      Time_fs:7.1598976064548
 O -0.00002709 0.00003838 0.00021812
 O -0.00012272 -0.00010129 -0.00006428
 H 0.00013471 -0.00025073 -0.00164948
 H 0.00001434 -0.00043742 0.00013294
 H 0.00245065 0.00201094 -0.00071044
 H -0.00022166 -0.00032423 -0.00021494
6 
Step: 75      Time_fs:7.2566529795150005
 O -0.00002904 0.00003481 0.00021864
 O -0.00012079 -0.00009985 -0.00006540
 H 0.00015578 -0.00022193 -0.00163723
 H 0.00001975 -0.00040934 0.00013842
 H 0.00242580 0.00198579 -0.00070008
 H -0.00022311 -0.00032210 -0.00023359
6 
Step: 76      Time_fs:7.3534083525752
 O -0.00003101 0.00003113 0.00021911
 O -0.00011846 -0.00009800 -0.00006676
 H 0.00017729 -0.00019209 -0.00162395
 H 0.00002508 -0.00038034 0.00014364
 H 0.00239381 0.00195346 -0.00068595
 H -0.00022361 -0.00031958 -0.00025212
6 
Step: 77      Time_fs:7.4501637256354005
 O -0.00003300 0.00002733 0.00021954
 O -0.00011577 -0.00009575 -0.00006834
 H 0.00019923 -0.00016135 -0.00160968
 H 0.00003030 -0.00035043 0.00014858
 H 0.00235511 0.00191440 -0.00066834
 H -0.00022312 -0.00031664 -0.00027046
6 
Step: 78      Time_fs:7.5469190986956
 O -0.00003502 0.00002344 0.00021991
 O -0.00011274 -0.00009314 -0.00007015
 H 0.00022157 -0.00012984 -0.00159441
 H 0.00003541 -0.00031964 0.00015327
 H 0.00231010 0.00186903 -0.00064748
 H -0.00022164 -0.00031328 -0.00028858
6 
Step: 79      Time_fs:7.6436744717558005
 O -0.00003705 0.00001946 0.00022024
 O -0.00010941 -0.00009018 -0.00007215
 H 0.00024428 -0.00009769 -0.00157817
 H 0.00004041 -0.00028798 0.00015770
 H 0.00225918 0.00181778 -0.00062365
 H -0.00021912 -0.00030951 -0.00030642
6 
Step: 80      Time_fs:7.740429844816
 O -0.00003911 0.00001540 0.00022052
 O -0.00010578 -0.00008691 -0.00007435
 H 0.00026735 -0.00006506 -0.00156098
 H 0.00004529 -0.00025548 0.00016188
 H 0.00220274 0.00176107 -0.00059708
 H -0.00021556 -0.00030532 -0.00032394
6 
Step: 81      Time_fs:7.8371852178762005
 O -0.00004117 0.00001127 0.00022075
 O -0.00010190 -0.00008336 -0.00007672
 H 0.00029074 -0.00003208 -0.00154287
 H 0.00005005 -0.00022217 0.00016583
 H 0.00214114 0.00169928 -0.00056799
 H -0.00021093 -0.00030072 -0.00034110
6 
Step: 82      Time_fs:7.9339405909364
 O -0.00004325 0.00000708 0.00022093
 O -0.00009778 -0.00007954 -0.00007926
 H 0.00031443 0.00000111 -0.00152385
 H 0.00005468 -0.00018806 0.00016956
 H 0.00207476 0.00163281 -0.00053661
 H -0.00020523 -0.00029569 -0.00035786
6 
Step: 83      Time_fs:8.0306959639966
 O -0.00004534 0.00000284 0.00022107
 O -0.00009345 -0.00007547 -0.00008196
 H 0.00033840 0.00003437 -0.00150396
 H 0.00005919 -0.00015318 0.00017309
 H 0.00200393 0.00156200 -0.00050314
 H -0.00019843 -0.00029025 -0.00037419
6 
Step: 84      Time_fs:8.127451337056801
 O -0.00004745 -0.00000144 0.00022117
 O -0.00008893 -0.00007119 -0.00008480
 H 0.00036262 0.00006756 -0.00148323
 H 0.00006357 -0.00011757 0.00017643
 H 0.00192899 0.00148721 -0.00046778
 H -0.00019054 -0.00028440 -0.00039005
6 
Step: 85      Time_fs:8.224206710117
 O -0.00004956 -0.00000574 0.00022122
 O -0.00008423 -0.00006670 -0.00008778
 H 0.00038706 0.00010054 -0.00146169
 H 0.00006783 -0.00008124 0.00017960
 H 0.00185026 0.00140877 -0.00043070
 H -0.00018156 -0.00027815 -0.00040542
6 
Step: 86      Time_fs:8.3209620831772
 O -0.00005168 -0.00001006 0.00022123
 O -0.00007938 -0.00006204 -0.00009088
 H 0.00041170 0.00013316 -0.00143937
 H 0.00007197 -0.00004423 0.00018262
 H 0.00176804 0.00132698 -0.00039208
 H -0.00017148 -0.00027149 -0.00042029
6 
Step: 87      Time_fs:8.4177174562374
 O -0.00005380 -0.00001439 0.00022120
 O -0.00007440 -0.00005720 -0.00009410
 H 0.00043651 0.00016530 -0.00141632
 H 0.00007599 -0.00000658 0.00018551
 H 0.00168262 0.00124215 -0.00035208
 H -0.00016031 -0.00026444 -0.00043462
6 
Step: 88      Time_fs:8.5144728292976
 O -0.00005593 -0.00001871 0.00022113
 O -0.00006929 -0.00005223 -0.00009743
 H 0.00046148 0.00019681 -0.00139256
 H 0.00007990 0.00003169 0.00018830
 H 0.00159428 0.00115456 -0.00031085
 H -0.00014805 -0.00025700 -0.00044840
6 
Step: 89      Time_fs:8.6112282023578
 O -0.00005806 -0.00002302 0.00022103
 O -0.00006409 -0.00004712 -0.00010087
 H 0.00048657 0.00022756 -0.00136815
 H 0.00008371 0.00007055 0.00019102
 H 0.00150327 0.00106446 -0.00026854
 H -0.00013473 -0.00024919 -0.00046162
6 
Step: 90      Time_fs:8.707983575418
 O -0.00006019 -0.00002731 0.00022088
 O -0.00005880 -0.00004190 -0.00010439
 H 0.00051176 0.00025742 -0.00134311
 H 0.00008741 0.00010995 0.00019367
 H 0.00140984 0.00097212 -0.00022527
 H -0.00012034 -0.00024101 -0.00047427
6 
Step: 91      Time_fs:8.8047389484782
 O -0.00006232 -0.00003156 0.00022070
 O -0.00005343 -0.00003657 -0.00010801
 H 0.00053704 0.00028626 -0.00131751
 H 0.00009102 0.00014987 0.00019630
 H 0.00131423 0.00087777 -0.00018117
 H -0.00010493 -0.00023247 -0.00048634
6 
Step: 92      Time_fs:8.9014943215384
 O -0.00006446 -0.00003576 0.00022048
 O -0.00004800 -0.00003116 -0.00011170
 H 0.00056236 0.00031395 -0.00129138
 H 0.00009455 0.00019026 0.00019894
 H 0.00121667 0.00078165 -0.00013635
 H -0.00008849 -0.00022360 -0.00049784
6 
Step: 93      Time_fs:8.9982496945986
 O -0.00006659 -0.00003991 0.00022023
 O -0.00004253 -0.00002568 -0.00011547
 H 0.00058772 0.00034039 -0.00126477
 H 0.00009800 0.00023109 0.00020160
 H 0.00111738 0.00068396 -0.00009094
 H -0.00007106 -0.00021439 -0.00050875
6 
Step: 94      Time_fs:9.0950050676588
 O -0.00006872 -0.00004399 0.00021995
 O -0.00003701 -0.00002013 -0.00011931
 H 0.00061310 0.00036544 -0.00123773
 H 0.00010139 0.00027232 0.00020432
 H 0.00101655 0.00058492 -0.00004503
 H -0.00005267 -0.00020487 -0.00051910
6 
Step: 95      Time_fs:9.191760440719
 O -0.00007085 -0.00004800 0.00021964
 O -0.00003147 -0.00001453 -0.00012320
 H 0.00063846 0.00038900 -0.00121031
 H 0.00010473 0.00031391 0.00020713
 H 0.00091439 0.00048472 0.00000127
 H -0.00003334 -0.00019505 -0.00052888
6 
Step: 96      Time_fs:9.2885158137792
 O -0.00007298 -0.00005192 0.00021930
 O -0.00002592 -0.00000890 -0.00012715
 H 0.00066379 0.00041096 -0.00118256
 H 0.00010802 0.00035581 0.00021005
 H 0.00081110 0.00038356 0.00004788
 H -0.00001312 -0.00018494 -0.00053810
6 
Step: 97      Time_fs:9.3852711868394
 O -0.00007510 -0.00005576 0.00021893
 O -0.00002035 -0.00000323 -0.00013114
 H 0.00068907 0.00043122 -0.00115454
 H 0.00011128 0.00039799 0.00021313
 H 0.00070685 0.00028162 0.00009470
 H 0.00000798 -0.00017456 -0.00054677
6 
Step: 98      Time_fs:9.4820265598996
 O -0.00007722 -0.00005949 0.00021854
 O -0.00001479 0.00000246 -0.00013518
 H 0.00071429 0.00044969 -0.00112628
 H 0.00011452 0.00044040 0.00021639
 H 0.00060183 0.00017909 0.00014165
 H 0.00002990 -0.00016394 -0.00055492
6 
Step: 99      Time_fs:9.578781932959801
 O -0.00007934 -0.00006311 0.00021812
 O -0.00000924 0.00000815 -0.00013925
 H 0.00073941 0.00046628 -0.00109786
 H 0.00011775 0.00048300 0.00021986
 H 0.00049623 0.00007612 0.00018864
 H 0.00005261 -0.00015307 -0.00056255
6 
Step: 100      Time_fs:9.67553730602
 O -0.00008145 -0.00006662 0.00021768
 O -0.00000371 0.00001385 -0.00014335
 H 0.00076444 0.00048090 -0.00106931
 H 0.00012099 0.00052574 0.00022356
 H 0.00039021 -0.00002710 0.00023558
 H 0.00007606 -0.00014199 -0.00056969
6 
Step: 101      Time_fs:9.7722926790802
 O -0.00008356 -0.00007000 0.00021722
 O 0.00000180 0.00001954 -0.00014748
 H 0.00078934 0.00049349 -0.00104070
 H 0.00012424 0.00056858 0.00022754
 H 0.00028395 -0.00013039 0.00028240
 H 0.00010022 -0.00013072 -0.00057635
6 
Step: 102      Time_fs:9.8690480521404
 O -0.00008566 -0.00007325 0.00021675
 O 0.00000727 0.00002520 -0.00015162
 H 0.00081410 0.00050399 -0.00101207
 H 0.00012752 0.00061147 0.00023182
 H 0.00017762 -0.00023361 0.00032901
 H 0.00012503 -0.00011926 -0.00058257
6 
Step: 103      Time_fs:9.965803425200601
 O -0.00008775 -0.00007636 0.00021625
 O 0.00001269 0.00003084 -0.00015577
 H 0.00083872 0.00051233 -0.00098349
 H 0.00013085 0.00065436 0.00023643
 H 0.00007140 -0.00033656 0.00037534
 H 0.00015045 -0.00010765 -0.00058836
6 
Step: 104      Time_fs:10.0625587982608
 O -0.00008984 -0.00007932 0.00021574
 O 0.00001807 0.00003644 -0.00015992
 H 0.00086317 0.00051847 -0.00095500
 H 0.00013423 0.00069721 0.00024139
 H -0.00003452 -0.00043908 0.00042130
 H 0.00017642 -0.00009590 -0.00059375
6 
Step: 105      Time_fs:10.159314171321
 O -0.00009193 -0.00008214 0.00021522
 O 0.00002338 0.00004199 -0.00016407
 H 0.00088744 0.00052237 -0.00092665
 H 0.00013767 0.00073997 0.00024674
 H -0.00013998 -0.00054100 0.00046681
 H 0.00020291 -0.00008404 -0.00059878
6 
Step: 106      Time_fs:10.2560695443812
 O -0.00009401 -0.00008481 0.00021468
 O 0.00002863 0.00004749 -0.00016821
 H 0.00091152 0.00052401 -0.00089851
 H 0.00014119 0.00078259 0.00025250
 H -0.00024479 -0.00064214 0.00051178
 H 0.00022985 -0.00007208 -0.00060346
6 
Step: 107      Time_fs:10.352824917441401
 O -0.00009608 -0.00008731 0.00021414
 O 0.00003380 0.00005291 -0.00017233
 H 0.00093540 0.00052337 -0.00087060
 H 0.00014480 0.00082502 0.00025869
 H -0.00034875 -0.00074231 0.00055614
 H 0.00025719 -0.00006005 -0.00060784
6 
Step: 108      Time_fs:10.4495802905016
 O -0.00009815 -0.00008966 0.00021359
 O 0.00003888 0.00005826 -0.00017643
 H 0.00095907 0.00052045 -0.00084300
 H 0.00014852 0.00086721 0.00026534
 H -0.00045168 -0.00084133 0.00059978
 H 0.00028488 -0.00004797 -0.00061194
6 
Step: 109      Time_fs:10.5463356635618
 O -0.00010022 -0.00009184 0.00021304
 O 0.00004387 0.00006352 -0.00018050
 H 0.00098252 0.00051524 -0.00081573
 H 0.00015234 0.00090911 0.00027246
 H -0.00055335 -0.00093899 0.00064261
 H 0.00031287 -0.00003586 -0.00061579
6 
Step: 110      Time_fs:10.643091036622
 O -0.00010228 -0.00009385 0.00021248
 O 0.00004875 0.00006868 -0.00018453
 H 0.00100574 0.00050778 -0.00078886
 H 0.00015629 0.00095068 0.00028008
 H -0.00065357 -0.00103510 0.00068455
 H 0.00034110 -0.00002374 -0.00061943
6 
Step: 111      Time_fs:10.739846409682201
 O -0.00010433 -0.00009570 0.00021192
 O 0.00005352 0.00007372 -0.00018850
 H 0.00102872 0.00049808 -0.00076241
 H 0.00016037 0.00099186 0.00028822
 H -0.00075210 -0.00112944 0.00072547
 H 0.00036951 -0.00001164 -0.00062290
6 
Step: 112      Time_fs:10.8366017827424
 O -0.00010638 -0.00009738 0.00021136
 O 0.00005816 0.00007864 -0.00019243
 H 0.00105146 0.00048620 -0.00073644
 H 0.00016459 0.00103261 0.00029689
 H -0.00084871 -0.00122178 0.00076529
 H 0.00039805 0.00000042 -0.00062622
6 
Step: 113      Time_fs:10.9333571558026
 O -0.00010842 -0.00009889 0.00021080