 Entering Gaussian System, Link 0=/home/slavicek/G03/g09-altix/g09//g09
 Input=input.com
 Output=input.log
 Initial command:
 /home/slavicek/G03/g09-altix/g09/l1.exe "/home/chalabaj/SNAFU/ABINITIO/scratch/Gau-19043.inp" -scrdir="/home/chalabaj/SNAFU/ABINITIO/scratch/"
 Entering Link 1 = /home/slavicek/G03/g09-altix/g09/l1.exe PID=     19045.
  
 Copyright (c) 1988,1990,1992,1993,1995,1998,2003,2009,2013,
            Gaussian, Inc.  All Rights Reserved.
  
 This is part of the Gaussian(R) 09 program.  It is based on
 the Gaussian(R) 03 system (copyright 2003, Gaussian, Inc.),
 the Gaussian(R) 98 system (copyright 1998, Gaussian, Inc.),
 the Gaussian(R) 94 system (copyright 1995, Gaussian, Inc.),
 the Gaussian 92(TM) system (copyright 1992, Gaussian, Inc.),
 the Gaussian 90(TM) system (copyright 1990, Gaussian, Inc.),
 the Gaussian 88(TM) system (copyright 1988, Gaussian, Inc.),
 the Gaussian 86(TM) system (copyright 1986, Carnegie Mellon
 University), and the Gaussian 82(TM) system (copyright 1983,
 Carnegie Mellon University). Gaussian is a federally registered
 trademark of Gaussian, Inc.
  
 This software contains proprietary and confidential information,
 including trade secrets, belonging to Gaussian, Inc.
  
 This software is provided under written license and may be
 used, copied, transmitted, or stored only in accord with that
 written license.
  
 The following legend is applicable only to US Government
 contracts under FAR:
  
                    RESTRICTED RIGHTS LEGEND
  
 Use, reproduction and disclosure by the US Government is
 subject to restrictions as set forth in subparagraphs (a)
 and (c) of the Commercial Computer Software - Restricted
 Rights clause in FAR 52.227-19.
  
 Gaussian, Inc.
 340 Quinnipiac St., Bldg. 40, Wallingford CT 06492
  
  
 ---------------------------------------------------------------
 Warning -- This program may not be used in any manner that
 competes with the business of Gaussian, Inc. or will provide
 assistance to any competitor of Gaussian, Inc.  The licensee
 of this program is prohibited from giving any competitor of
 Gaussian, Inc. access to this program.  By using this program,
 the user acknowledges that Gaussian, Inc. is engaged in the
 business of creating and licensing software in the field of
 computational chemistry and represents and warrants to the
 licensee that it is not a competitor of Gaussian, Inc. and that
 it will not use this program in any manner prohibited above.
 ---------------------------------------------------------------
  

 Cite this work as:
 Gaussian 09, Revision D.01,
 M. J. Frisch, G. W. Trucks, H. B. Schlegel, G. E. Scuseria, 
 M. A. Robb, J. R. Cheeseman, G. Scalmani, V. Barone, B. Mennucci, 
 G. A. Petersson, H. Nakatsuji, M. Caricato, X. Li, H. P. Hratchian, 
 A. F. Izmaylov, J. Bloino, G. Zheng, J. L. Sonnenberg, M. Hada, 
 M. Ehara, K. Toyota, R. Fukuda, J. Hasegawa, M. Ishida, T. Nakajima, 
 Y. Honda, O. Kitao, H. Nakai, T. Vreven, J. A. Montgomery, Jr., 
 J. E. Peralta, F. Ogliaro, M. Bearpark, J. J. Heyd, E. Brothers, 
 K. N. Kudin, V. N. Staroverov, T. Keith, R. Kobayashi, J. Normand, 
 K. Raghavachari, A. Rendell, J. C. Burant, S. S. Iyengar, J. Tomasi, 
 M. Cossi, N. Rega, J. M. Millam, M. Klene, J. E. Knox, J. B. Cross, 
 V. Bakken, C. Adamo, J. Jaramillo, R. Gomperts, R. E. Stratmann, 
 O. Yazyev, A. J. Austin, R. Cammi, C. Pomelli, J. W. Ochterski, 
 R. L. Martin, K. Morokuma, V. G. Zakrzewski, G. A. Voth, 
 P. Salvador, J. J. Dannenberg, S. Dapprich, A. D. Daniels, 
 O. Farkas, J. B. Foresman, J. V. Ortiz, J. Cioslowski, 
 and D. J. Fox, Gaussian, Inc., Wallingford CT, 2013.
 
 ******************************************
 Gaussian 09:  ES64L-G09RevD.01 24-Apr-2013
                17-Oct-2018 
 ******************************************
 %chk=checkpoint.chk
 %Mem=4Gb
 %Nproc=1
 Will use up to    1 processors via shared memory.
 --------------------------------------------------
 #P BHandHLYP/6-31++g** SCF=XQC guess=(Read,TCheck)
 --------------------------------------------------
 1/38=1/1;
 2/12=2,17=6,18=5,40=1/2;
 3/5=1,6=6,7=1111,11=2,16=1,25=1,30=1,74=-3/1,2,3;
 4/5=102/1;
 5/5=2,8=3,13=1/2,8;
 6/7=2,8=2,9=2,10=2,28=1/1;
 99/5=1,9=1/99;
 Leave Link    1 at Wed Oct 17 14:57:52 2018, MaxMem=   536870912 cpu:         0.0
 (Enter /home/slavicek/G03/g09-altix/g09/l101.exe)
 -------
 comment
 -------
 Symbolic Z-matrix:
 Charge =  1 Multiplicity = 2
 O                    -0.05266   0.       -0.04115 
 H                    -0.05045   0.        0.9261 
 H                     0.88639   0.       -0.27299 
 
 NAtoms=      3 NQM=        3 NQMF=       0 NMMI=      0 NMMIF=      0
                NMic=       0 NMicF=      0.
                    Isotopes and Nuclear Properties:
 (Nuclear quadrupole moments (NQMom) in fm**2, nuclear magnetic moments (NMagM)
  in nuclear magnetons)

  Atom         1           2           3
 IAtWgt=          16           1           1
 AtmWgt=  15.9949146   1.0078250   1.0078250
 NucSpn=           0           1           1
 AtZEff=   0.0000000   0.0000000   0.0000000
 NQMom=    0.0000000   0.0000000   0.0000000
 NMagM=    0.0000000   2.7928460   2.7928460
 AtZNuc=   8.0000000   1.0000000   1.0000000
 Leave Link  101 at Wed Oct 17 14:57:52 2018, MaxMem=   536870912 cpu:         0.1
 (Enter /home/slavicek/G03/g09-altix/g09/l202.exe)
                          Input orientation:                          
 ---------------------------------------------------------------------
 Center     Atomic      Atomic             Coordinates (Angstroms)
 Number     Number       Type             X           Y           Z
 ---------------------------------------------------------------------
      1          8           0       -0.052664    0.000000   -0.041146
      2          1           0       -0.050446    0.000000    0.926099
      3          1           0        0.886386    0.000000   -0.272992
 ---------------------------------------------------------------------
                    Distance matrix (angstroms):
                    1          2          3
     1  O    0.000000
     2  H    0.967247   0.000000
     3  H    0.967248   1.521668   0.000000
 Stoichiometry    H2O(1+,2)
 Framework group  C2V[C2(O),SGV(H2)]
 Deg. of freedom     2
 Full point group                 C2V     NOp   4
 Largest Abelian subgroup         C2V     NOp   4
 Largest concise Abelian subgroup C2      NOp   2
                         Standard orientation:                         
 ---------------------------------------------------------------------
 Center     Atomic      Atomic             Coordinates (Angstroms)
 Number     Number       Type             X           Y           Z
 ---------------------------------------------------------------------
      1          8           0        0.000000    0.000000    0.119449
      2          1           0        0.000000   -0.760834   -0.477795
      3          1           0        0.000000    0.760834   -0.477795
 ---------------------------------------------------------------------
 Rotational constants (GHZ):    791.4890403    433.1341627    279.9399374
 Leave Link  202 at Wed Oct 17 14:57:52 2018, MaxMem=   536870912 cpu:         0.0
 (Enter /home/slavicek/G03/g09-altix/g09/l301.exe)
 Standard basis: 6-31++G(d,p) (6D, 7F)
 Ernie: Thresh=  0.10000D-02 Tol=  0.10000D-05 Strict=F.
 There are    15 symmetry adapted cartesian basis functions of A1  symmetry.
 There are     2 symmetry adapted cartesian basis functions of A2  symmetry.
 There are     5 symmetry adapted cartesian basis functions of B1  symmetry.
 There are     9 symmetry adapted cartesian basis functions of B2  symmetry.
 There are    15 symmetry adapted basis functions of A1  symmetry.
 There are     2 symmetry adapted basis functions of A2  symmetry.
 There are     5 symmetry adapted basis functions of B1  symmetry.
 There are     9 symmetry adapted basis functions of B2  symmetry.
    31 basis functions,    48 primitive gaussians,    31 cartesian basis functions
     5 alpha electrons        4 beta electrons
       nuclear repulsion energy         9.1012972477 Hartrees.
 IExCor=  402 DFT=T Ex+Corr=BHandHLYP ExCW=0 ScaHFX=  0.500000
 ScaDFX=  0.500000  0.500000  1.000000  1.000000 ScalE2=  1.000000  1.000000
 IRadAn=      0 IRanWt=     -1 IRanGd=            0 ICorTp=0 IEmpDi=  4
 NAtoms=    3 NActive=    3 NUniq=    2 SFac= 2.25D+00 NAtFMM=   60 NAOKFM=F Big=F
 Integral buffers will be    131072 words long.
 Raffenetti 2 integral format.
 Two-electron integral symmetry is turned on.
 Leave Link  301 at Wed Oct 17 14:57:53 2018, MaxMem=   536870912 cpu:         0.0
 (Enter /home/slavicek/G03/g09-altix/g09/l302.exe)
 NPDir=0 NMtPBC=     1 NCelOv=     1 NCel=       1 NClECP=     1 NCelD=      1
         NCelK=      1 NCelE2=     1 NClLst=     1 CellRange=     0.0.
 One-electron integrals computed using PRISM.
 One-electron integral symmetry used in STVInt
 NBasis=    31 RedAO= T EigKep=  2.05D-02  NBF=    15     2     5     9
 NBsUse=    31 1.00D-06 EigRej= -1.00D+00 NBFU=    15     2     5     9
 Precomputing XC quadrature grid using
 IXCGrd= 4 IRadAn=           0 IRanWt=          -1 IRanGd=           0 AccXCQ= 0.00D+00.
 Generated NRdTot=       0 NPtTot=           0 NUsed=           0 NTot=          32
 NSgBfM=    31    31    31    31    31 MxSgAt=     3 MxSgA2=     3.
 Leave Link  302 at Wed Oct 17 14:57:53 2018, MaxMem=   536870912 cpu:         0.1
 (Enter /home/slavicek/G03/g09-altix/g09/l303.exe)
 DipDrv:  MaxL=1.
 Leave Link  303 at Wed Oct 17 14:57:53 2018, MaxMem=   536870912 cpu:         0.0
 (Enter /home/slavicek/G03/g09-altix/g09/l401.exe)
 Initial guess from the checkpoint file:  "checkpoint.chk"
 B after Tr=     0.000000    0.000000    0.000000
         Rot=    1.000000    0.000000    0.000000    0.000000 Ang=   0.00 deg.
 Guess basis will be translated and rotated to current coordinates.
 JPrj=2 DoOrth=T DoCkMO=T.
 Initial guess orbital symmetries:
 Alpha Orbitals:
       Occupied  (A1) (A1) (B2) (B1) (A1)
       Virtual   (A1) (B2) (B1) (A1) (B2) (A1) (B2) (A1) (B2) (A1)
                 (B1) (A1) (B2) (A1) (A2) (A1) (B1) (A1) (B2) (B2)
                 (A2) (B1) (A1) (A1) (B2) (A1)
 Beta  Orbitals:
       Occupied  (A1) (A1) (B2) (A1)
       Virtual   (B1) (A1) (B2) (A1) (B1) (B2) (A1) (B2) (A1) (B2)
                 (A1) (A1) (B1) (B2) (A1) (A2) (A1) (B1) (A1) (B2)
                 (B2) (A2) (B1) (A1) (A1) (B2) (A1)
 The electronic state of the initial guess is 2-B1.
 Initial guess <Sx>= 0.0000 <Sy>= 0.0000 <Sz>= 0.5000 <S**2>= 0.7532 S= 0.5016
 Leave Link  401 at Wed Oct 17 14:57:53 2018, MaxMem=   536870912 cpu:         0.1
 (Enter /home/slavicek/G03/g09-altix/g09/l502.exe)
 UHF open shell SCF:
 Using DIIS extrapolation, IDIIS=  1040.
 Integral symmetry usage will be decided dynamically.
 Keep R1 and R2 ints in memory in symmetry-blocked form, NReq=994454.
 IVT=        9329 IEndB=        9329 NGot=   536870912 MDV=   536790415
 LenX=   536790415 LenY=   536789013
 Requested convergence on RMS density matrix=1.00D-08 within  64 cycles.
 Requested convergence on MAX density matrix=1.00D-06.
 Requested convergence on             energy=1.00D-06.
 No special actions if energy rises.
 FoFCou: FMM=F IPFlag=           0 FMFlag=           0 FMFlg1=           0
         NFxFlg=           0 DoJE=F BraDBF=F KetDBF=F FulRan=T
         wScrn=  0.000000 ICntrl=     600 IOpCl=  0 I1Cent=           0 NGrid=           0
         NMat0=    1 NMatS0=    496 NMatT0=    0 NMatD0=    1 NMtDS0=    0 NMtDT0=    0
 Petite list used in FoFCou.

 Cycle   1  Pass 1  IDiag  1:
 E= -75.9360709415640    
 DIIS: error= 6.18D-04 at cycle   1 NSaved=   1.
 NSaved= 1 IEnMin= 1 EnMin= -75.9360709415640     IErMin= 1 ErrMin= 6.18D-04
 ErrMax= 6.18D-04  0.00D+00 EMaxC= 1.00D-01 BMatC= 2.74D-05 BMatP= 2.74D-05
 IDIUse=3 WtCom= 9.94D-01 WtEn= 6.18D-03
 Coeff-Com:  0.100D+01
 Coeff-En:   0.100D+01
 Coeff:      0.100D+01
 Gap=     0.708 Goal=   None    Shift=    0.000
 Gap=     0.409 Goal=   None    Shift=    0.000
 RMSDP=9.52D-05 MaxDP=7.27D-04              OVMax= 9.75D-04

 Cycle   2  Pass 1  IDiag  1:
 E= -75.9360770616990     Delta-E=       -0.000006120135 Rises=F Damp=F
 DIIS: error= 1.62D-04 at cycle   2 NSaved=   2.
 NSaved= 2 IEnMin= 2 EnMin= -75.9360770616990     IErMin= 2 ErrMin= 1.62D-04
 ErrMax= 1.62D-04  0.00D+00 EMaxC= 1.00D-01 BMatC= 2.93D-06 BMatP= 2.74D-05
 IDIUse=3 WtCom= 9.98D-01 WtEn= 1.62D-03
 Coeff-Com:  0.123D+00 0.877D+00
 Coeff-En:   0.000D+00 0.100D+01
 Coeff:      0.122D+00 0.878D+00
 Gap=     0.709 Goal=   None    Shift=    0.000
 Gap=     0.409 Goal=   None    Shift=    0.000
 RMSDP=2.19D-05 MaxDP=3.35D-04 DE=-6.12D-06 OVMax= 2.90D-04

 Cycle   3  Pass 1  IDiag  1:
 E= -75.9360774567653     Delta-E=       -0.000000395066 Rises=F Damp=F
 DIIS: error= 9.00D-05 at cycle   3 NSaved=   3.
 NSaved= 3 IEnMin= 3 EnMin= -75.9360774567653     IErMin= 3 ErrMin= 9.00D-05
 ErrMax= 9.00D-05  0.00D+00 EMaxC= 1.00D-01 BMatC= 7.16D-07 BMatP= 2.93D-06
 IDIUse=1 WtCom= 1.00D+00 WtEn= 0.00D+00
 Coeff-Com: -0.340D-01 0.316D+00 0.718D+00
 Coeff:     -0.340D-01 0.316D+00 0.718D+00
 Gap=     0.709 Goal=   None    Shift=    0.000
 Gap=     0.409 Goal=   None    Shift=    0.000
 RMSDP=8.40D-06 MaxDP=1.41D-04 DE=-3.95D-07 OVMax= 1.40D-04

 Cycle   4  Pass 1  IDiag  1:
 E= -75.9360775913631     Delta-E=       -0.000000134598 Rises=F Damp=F
 DIIS: error= 8.13D-06 at cycle   4 NSaved=   4.
 NSaved= 4 IEnMin= 4 EnMin= -75.9360775913631     IErMin= 4 ErrMin= 8.13D-06
 ErrMax= 8.13D-06  0.00D+00 EMaxC= 1.00D-01 BMatC= 4.05D-09 BMatP= 7.16D-07
 IDIUse=1 WtCom= 1.00D+00 WtEn= 0.00D+00
 Coeff-Com: -0.401D-02-0.595D-02 0.478D-01 0.962D+00
 Coeff:     -0.401D-02-0.595D-02 0.478D-01 0.962D+00
 Gap=     0.709 Goal=   None    Shift=    0.000
 Gap=     0.409 Goal=   None    Shift=    0.000
 RMSDP=9.55D-07 MaxDP=1.14D-05 DE=-1.35D-07 OVMax= 1.92D-05

 Cycle   5  Pass 1  IDiag  1:
 E= -75.9360775926426     Delta-E=       -0.000000001280 Rises=F Damp=F
 DIIS: error= 1.48D-06 at cycle   5 NSaved=   5.
 NSaved= 5 IEnMin= 5 EnMin= -75.9360775926426     IErMin= 5 ErrMin= 1.48D-06
 ErrMax= 1.48D-06  0.00D+00 EMaxC= 1.00D-01 BMatC= 1.62D-10 BMatP= 4.05D-09
 IDIUse=1 WtCom= 1.00D+00 WtEn= 0.00D+00
 Coeff-Com:  0.164D-02-0.118D-01-0.304D-01-0.117D+00 0.116D+01
 Coeff:      0.164D-02-0.118D-01-0.304D-01-0.117D+00 0.116D+01
 Gap=     0.709 Goal=   None    Shift=    0.000
 Gap=     0.409 Goal=   None    Shift=    0.000
 RMSDP=3.24D-07 MaxDP=5.18D-06 DE=-1.28D-09 OVMax= 7.67D-06

 Cycle   6  Pass 1  IDiag  1:
 E= -75.9360775927390     Delta-E=       -0.000000000096 Rises=F Damp=F
 DIIS: error= 5.35D-07 at cycle   6 NSaved=   6.
 NSaved= 6 IEnMin= 6 EnMin= -75.9360775927390     IErMin= 6 ErrMin= 5.35D-07
 ErrMax= 5.35D-07  0.00D+00 EMaxC= 1.00D-01 BMatC= 1.46D-11 BMatP= 1.62D-10
 IDIUse=1 WtCom= 1.00D+00 WtEn= 0.00D+00
 Coeff-Com: -0.587D-03 0.575D-02 0.122D-01 0.157D-01-0.545D+00 0.151D+01
 Coeff:     -0.587D-03 0.575D-02 0.122D-01 0.157D-01-0.545D+00 0.151D+01
 Gap=     0.709 Goal=   None    Shift=    0.000
 Gap=     0.409 Goal=   None    Shift=    0.000
 RMSDP=1.13D-07 MaxDP=1.72D-06 DE=-9.65D-11 OVMax= 1.97D-06

 Cycle   7  Pass 1  IDiag  1:
 E= -75.9360775927496     Delta-E=       -0.000000000011 Rises=F Damp=F
 DIIS: error= 1.26D-07 at cycle   7 NSaved=   7.
 NSaved= 7 IEnMin= 7 EnMin= -75.9360775927496     IErMin= 7 ErrMin= 1.26D-07
 ErrMax= 1.26D-07  0.00D+00 EMaxC= 1.00D-01 BMatC= 6.28D-13 BMatP= 1.46D-11
 IDIUse=1 WtCom= 1.00D+00 WtEn= 0.00D+00
 Coeff-Com:  0.107D-03-0.120D-02-0.250D-02-0.574D-04 0.121D+00-0.526D+00
 Coeff-Com:  0.141D+01
 Coeff:      0.107D-03-0.120D-02-0.250D-02-0.574D-04 0.121D+00-0.526D+00
 Coeff:      0.141D+01
 Gap=     0.709 Goal=   None    Shift=    0.000
 Gap=     0.409 Goal=   None    Shift=    0.000
 RMSDP=2.69D-08 MaxDP=4.10D-07 DE=-1.06D-11 OVMax= 5.20D-07

 Cycle   8  Pass 1  IDiag  1:
 E= -75.9360775927500     Delta-E=        0.000000000000 Rises=F Damp=F
 DIIS: error= 8.89D-09 at cycle   8 NSaved=   8.
 NSaved= 8 IEnMin= 8 EnMin= -75.9360775927500     IErMin= 8 ErrMin= 8.89D-09
 ErrMax= 8.89D-09  0.00D+00 EMaxC= 1.00D-01 BMatC= 3.20D-15 BMatP= 6.28D-13
 IDIUse=1 WtCom= 1.00D+00 WtEn= 0.00D+00
 Coeff-Com: -0.109D-04 0.124D-03 0.278D-03-0.240D-04-0.143D-01 0.729D-01
 Coeff-Com: -0.255D+00 0.120D+01
 Coeff:     -0.109D-04 0.124D-03 0.278D-03-0.240D-04-0.143D-01 0.729D-01
 Coeff:     -0.255D+00 0.120D+01
 Gap=     0.709 Goal=   None    Shift=    0.000
 Gap=     0.409 Goal=   None    Shift=    0.000
 RMSDP=1.62D-09 MaxDP=2.81D-08 DE=-3.41D-13 OVMax= 3.13D-08

 SCF Done:  E(UBHandHLYP) =  -75.9360775927     A.U. after    8 cycles
            NFock=  8  Conv=0.16D-08     -V/T= 2.0063
 <Sx>= 0.0000 <Sy>= 0.0000 <Sz>= 0.5000 <S**2>= 0.7532 S= 0.5016
 <L.S>= 0.000000000000E+00
 KE= 7.546051054593D+01 PE=-1.933932178469D+02 EE= 3.289533246045D+01
 Annihilation of the first spin contaminant:
 S**2 before annihilation     0.7532,   after     0.7500
 Leave Link  502 at Wed Oct 17 14:57:53 2018, MaxMem=   536870912 cpu:         0.4
 (Enter /home/slavicek/G03/g09-altix/g09/l508.exe)
 QCSCF skips out because SCF is already converged.
 Leave Link  508 at Wed Oct 17 14:57:53 2018, MaxMem=   536870912 cpu:         0.0
 (Enter /home/slavicek/G03/g09-altix/g09/l601.exe)
 Copying SCF densities to generalized density rwf, IOpCl= 1 IROHF=0.

 **********************************************************************

            Population analysis using the SCF density.

 **********************************************************************

 Orbital symmetries:
 Alpha Orbitals:
       Occupied  (A1) (A1) (B2) (B1) (A1)
       Virtual   (A1) (B2) (B1) (A1) (B2) (A1) (B2) (A1) (B2) (A1)
                 (B1) (A1) (B2) (A1) (A2) (A1) (B1) (A1) (B2) (B2)
                 (A2) (B1) (A1) (A1) (B2) (A1)
 Beta  Orbitals:
       Occupied  (A1) (A1) (B2) (A1)
       Virtual   (B1) (A1) (B2) (A1) (B1) (B2) (A1) (B2) (A1) (B2)
                 (A1) (A1) (B1) (B2) (A1) (A2) (A1) (B1) (A1) (B2)
                 (B2) (A2) (B1) (A1) (A1) (B2) (A1)
 The electronic state is 2-B1.
 Alpha  occ. eigenvalues --  -20.27322  -1.68397  -1.09070  -0.97984  -0.96454
 Alpha virt. eigenvalues --   -0.25574  -0.17458  -0.08009  -0.07047  -0.04748
 Alpha virt. eigenvalues --   -0.04221   0.02268   0.03709   0.62143   0.70303
 Alpha virt. eigenvalues --    0.75453   0.82572   0.86806   1.05452   1.13238
 Alpha virt. eigenvalues --    1.18269   1.24421   1.88485   1.96197   2.19290
 Alpha virt. eigenvalues --    2.29214   2.33793   2.71813   3.04565   3.27528
 Alpha virt. eigenvalues --    3.70958
  Beta  occ. eigenvalues --  -20.24134  -1.58598  -1.06528  -0.92818
  Beta virt. eigenvalues --   -0.51874  -0.24762  -0.17004  -0.06769  -0.05334
  Beta virt. eigenvalues --   -0.04680  -0.03631   0.02401   0.04237   0.62350
  Beta virt. eigenvalues --    0.71537   0.84108   0.85688   0.87661   1.07098
  Beta virt. eigenvalues --    1.18342   1.21223   1.30145   1.93977   1.95715
  Beta virt. eigenvalues --    2.19922   2.31858   2.35799   2.72098   3.05780
  Beta virt. eigenvalues --    3.28213   3.73774
          Condensed to atoms (all electrons):
               1          2          3
     1  O    7.384035   0.284253   0.284253
     2  H    0.284253   0.260123  -0.020646
     3  H    0.284253  -0.020646   0.260123
          Atomic-Atomic Spin Densities.
               1          2          3
     1  O    1.073570  -0.008226  -0.008226
     2  H   -0.008226  -0.021787   0.001454
     3  H   -0.008226   0.001454  -0.021787
 Mulliken charges and spin densities:
               1          2
     1  O    0.047459   1.057118
     2  H    0.476271  -0.028559
     3  H    0.476271  -0.028559
 Sum of Mulliken charges =   1.00000   1.00000
 Mulliken charges and spin densities with hydrogens summed into heavy atoms:
               1          2
     1  O    1.000000   1.000000
 Electronic spatial extent (au):  <R**2>=             14.4456
 Charge=              1.0000 electrons
 Dipole moment (field-independent basis, Debye):
    X=              0.0000    Y=              0.0000    Z=             -2.3631  Tot=              2.3631
 Quadrupole moment (field-independent basis, Debye-Ang):
   XX=             -4.7411   YY=             -2.1136   ZZ=             -4.2730
   XY=              0.0000   XZ=              0.0000   YZ=              0.0000
 Traceless Quadrupole moment (field-independent basis, Debye-Ang):
   XX=             -1.0318   YY=              1.5956   ZZ=             -0.5638
   XY=              0.0000   XZ=              0.0000   YZ=              0.0000
 Octapole moment (field-independent basis, Debye-Ang**2):
  XXX=              0.0000  YYY=              0.0000  ZZZ=             -1.6527  XYY=              0.0000
  XXY=              0.0000  XXZ=             -0.2662  XZZ=              0.0000  YZZ=              0.0000
  YYZ=             -1.8768  XYZ=              0.0000
 Hexadecapole moment (field-independent basis, Debye-Ang**3):
 XXXX=             -2.7180 YYYY=             -2.8103 ZZZZ=             -4.3853 XXXY=              0.0000
 XXXZ=              0.0000 YYYX=              0.0000 YYYZ=              0.0000 ZZZX=              0.0000
 ZZZY=              0.0000 XXYY=             -1.2788 XXZZ=             -1.2372 YYZZ=             -0.7332
 XXYZ=              0.0000 YYXZ=              0.0000 ZZXY=              0.0000
 N-N= 9.101297247725D+00 E-N=-1.933932178663D+02  KE= 7.546051054593D+01
 Symmetry A1   KE= 6.863113929307D+01
 Symmetry A2   KE= 3.489404819493D-35
 Symmetry B1   KE= 2.708431641229D+00
 Symmetry B2   KE= 4.120939611626D+00
                          Isotropic Fermi Contact Couplings
        Atom                 a.u.       MegaHertz       Gauss      10(-4) cm-1
     1  O(17)              0.17629    -106.86644     -38.13260     -35.64681
     2  H(1)              -0.01737     -77.63173     -27.70093     -25.89516
     3  H(1)              -0.01737     -77.63173     -27.70093     -25.89516
 --------------------------------------------------------
       Center         ----  Spin Dipole Couplings  ----
                      3XX-RR        3YY-RR        3ZZ-RR
 --------------------------------------------------------
     1   Atom        3.908771     -1.925199     -1.983572
     2   Atom       -0.047201      0.067970     -0.020769
     3   Atom       -0.047201      0.067970     -0.020769
 --------------------------------------------------------
                        XY            XZ            YZ
 --------------------------------------------------------
     1   Atom        0.000000      0.000000      0.000000
     2   Atom        0.000000      0.000000      0.155161
     3   Atom        0.000000      0.000000     -0.155161
 --------------------------------------------------------


 ---------------------------------------------------------------------------------
              Anisotropic Spin Dipole Couplings in Principal Axis System
 ---------------------------------------------------------------------------------

       Atom             a.u.   MegaHertz   Gauss  10(-4) cm-1        Axes

              Baa    -1.9836   143.530    51.215    47.876  0.0000  0.0000  1.0000
     1 O(17)  Bbb    -1.9252   139.306    49.708    46.467  0.0000  1.0000  0.0000
              Bcc     3.9088  -282.836  -100.923   -94.344  1.0000  0.0000  0.0000
 
              Baa    -0.1378   -73.513   -26.231   -24.521  0.0000 -0.6021  0.7984
     2 H(1)   Bbb    -0.0472   -25.184    -8.986    -8.401  1.0000  0.0000  0.0000
              Bcc     0.1850    98.697    35.218    32.922  0.0000  0.7984  0.6021
 
              Baa    -0.1378   -73.513   -26.231   -24.521  0.0000  0.6021  0.7984
     3 H(1)   Bbb    -0.0472   -25.184    -8.986    -8.401  1.0000  0.0000  0.0000
              Bcc     0.1850    98.697    35.218    32.922  0.0000  0.7984 -0.6021
 

 ---------------------------------------------------------------------------------

 No NMR shielding tensors so no spin-rotation constants.
 Leave Link  601 at Wed Oct 17 14:57:53 2018, MaxMem=   536870912 cpu:         0.1
 (Enter /home/slavicek/G03/g09-altix/g09/l9999.exe)
 1\1\GINC-403-AS67-01\SP\UBHandHLYP\6-31++G(d,p)\H2O1(1+,2)\CHALABAJ\17
 -Oct-2018\0\\#P BHandHLYP/6-31++g** SCF=XQC guess=(Read,TCheck)\\comme
 nt\\1,2\O,0,-0.0526643433,0.,-0.0411458909\H,0,-0.0504464547,0.,0.9260
 990021\H,0,0.8863859242,0.,-0.272991567\\Version=ES64L-G09RevD.01\Stat
 e=2-B1\HF=-75.9360776\S2=0.753228\S2-1=0.\S2A=0.750006\RMSD=1.620e-09\
 Dipole=0.7326205,0.,0.5723861\Quadrupole=0.1893782,-0.7671431,0.577764
 9,0.,-0.7788682,0.\PG=C02V [C2(O1),SGV(H2)]\\@


 ASKING FOR EFFICIENCY AND ADAPTABILITY IN THE SAME PROGRAM IS LIKE
 ASKING FOR A BEAUTIFUL AND MODEST WIFE ...
 WE'LL PROBABLY HAVE TO SETTLE FOR ONE OR THE OTHER.

             -- THE PSYCHOLOGY OF COMPUTER PROGRAMMING
                GERALD M. WEINBERG
 Job cpu time:       0 days  0 hours  0 minutes  0.9 seconds.
 File lengths (MBytes):  RWF=      5 Int=      0 D2E=      0 Chk=      1 Scr=      1
 Normal termination of Gaussian 09 at Wed Oct 17 14:57:53 2018.
 Initial command:
 /home/slavicek/G03/g09-altix/g09/l1.exe "/home/chalabaj/SNAFU/ABINITIO/scratch/Gau-19043.inp" -scrdir="/home/chalabaj/SNAFU/ABINITIO/scratch/"
 Entering Link 1 = /home/slavicek/G03/g09-altix/g09/l1.exe PID=     19053.
  
 Copyright (c) 1988,1990,1992,1993,1995,1998,2003,2009,2013,
            Gaussian, Inc.  All Rights Reserved.
  
 This is part of the Gaussian(R) 09 program.  It is based on
 the Gaussian(R) 03 system (copyright 2003, Gaussian, Inc.),
 the Gaussian(R) 98 system (copyright 1998, Gaussian, Inc.),
 the Gaussian(R) 94 system (copyright 1995, Gaussian, Inc.),
 the Gaussian 92(TM) system (copyright 1992, Gaussian, Inc.),
 the Gaussian 90(TM) system (copyright 1990, Gaussian, Inc.),
 the Gaussian 88(TM) system (copyright 1988, Gaussian, Inc.),
 the Gaussian 86(TM) system (copyright 1986, Carnegie Mellon
 University), and the Gaussian 82(TM) system (copyright 1983,
 Carnegie Mellon University). Gaussian is a federally registered
 trademark of Gaussian, Inc.
  
 This software contains proprietary and confidential information,
 including trade secrets, belonging to Gaussian, Inc.
  
 This software is provided under written license and may be
 used, copied, transmitted, or stored only in accord with that
 written license.
  
 The following legend is applicable only to US Government
 contracts under FAR:
  
                    RESTRICTED RIGHTS LEGEND
  
 Use, reproduction and disclosure by the US Government is
 subject to restrictions as set forth in subparagraphs (a)
 and (c) of the Commercial Computer Software - Restricted
 Rights clause in FAR 52.227-19.
  
 Gaussian, Inc.
 340 Quinnipiac St., Bldg. 40, Wallingford CT 06492
  
  
 ---------------------------------------------------------------
 Warning -- This program may not be used in any manner that
 competes with the business of Gaussian, Inc. or will provide
 assistance to any competitor of Gaussian, Inc.  The licensee
 of this program is prohibited from giving any competitor of
 Gaussian, Inc. access to this program.  By using this program,
 the user acknowledges that Gaussian, Inc. is engaged in the
 business of creating and licensing software in the field of
 computational chemistry and represents and warrants to the
 licensee that it is not a competitor of Gaussian, Inc. and that
 it will not use this program in any manner prohibited above.
 ---------------------------------------------------------------
  

 Cite this work as:
 Gaussian 09, Revision D.01,
 M. J. Frisch, G. W. Trucks, H. B. Schlegel, G. E. Scuseria, 
 M. A. Robb, J. R. Cheeseman, G. Scalmani, V. Barone, B. Mennucci, 
 G. A. Petersson, H. Nakatsuji, M. Caricato, X. Li, H. P. Hratchian, 
 A. F. Izmaylov, J. Bloino, G. Zheng, J. L. Sonnenberg, M. Hada, 
 M. Ehara, K. Toyota, R. Fukuda, J. Hasegawa, M. Ishida, T. Nakajima, 
 Y. Honda, O. Kitao, H. Nakai, T. Vreven, J. A. Montgomery, Jr., 
 J. E. Peralta, F. Ogliaro, M. Bearpark, J. J. Heyd, E. Brothers, 
 K. N. Kudin, V. N. Staroverov, T. Keith, R. Kobayashi, J. Normand, 
 K. Raghavachari, A. Rendell, J. C. Burant, S. S. Iyengar, J. Tomasi, 
 M. Cossi, N. Rega, J. M. Millam, M. Klene, J. E. Knox, J. B. Cross, 
 V. Bakken, C. Adamo, J. Jaramillo, R. Gomperts, R. E. Stratmann, 
 O. Yazyev, A. J. Austin, R. Cammi, C. Pomelli, J. W. Ochterski, 
 R. L. Martin, K. Morokuma, V. G. Zakrzewski, G. A. Voth, 
 P. Salvador, J. J. Dannenberg, S. Dapprich, A. D. Daniels, 
 O. Farkas, J. B. Foresman, J. V. Ortiz, J. Cioslowski, 
 and D. J. Fox, Gaussian, Inc., Wallingford CT, 2013.
 
 ******************************************
 Gaussian 09:  ES64L-G09RevD.01 24-Apr-2013
                17-Oct-2018 
 ******************************************
 %chk=checkpoint.chk
 %Mem=4Gb
 %Nproc=1
 Will use up to    1 processors via shared memory.
 ----------------------------------------------------------------------
 #P BHandHLYP/6-31++g** SCF=XQC FORCE TD=(nstates=2,root=2,conver=5) Ge
 om=Check Guess=Read
 ----------------------------------------------------------------------
 1/10=7,29=2,30=1,38=1/1,3;
 2/12=2,40=1/2;
 3/5=1,6=6,7=1111,11=9,14=-4,16=1,25=1,30=1,71=1,74=-3,116=-2/1,2,8,3;
 4/5=1/1;
 5/5=2,8=3,13=1,38=6/2,8;
 8/6=1,10=2,107=2,108=2/1;
 9/8=2,9=5,15=2,41=2,42=1,70=2/14;
 10/5=4/2;
 6/7=2,8=2,9=2,10=2,18=1/1;
 7/12=6,13=5,14=2,29=1/1,2,3,16;
 1/10=7,30=1/3;
 99//99;
 Leave Link    1 at Wed Oct 17 14:57:53 2018, MaxMem=   536870912 cpu:         0.0
 (Enter /home/slavicek/G03/g09-altix/g09/l101.exe)
 -------
 comment
 -------
 Structure from the checkpoint file:  "checkpoint.chk"
 Charge =  1 Multiplicity = 2
 Z-Matrix found in file.
 O,0,-0.0526643433,0.,-0.0411458909
 H,0,-0.0504464547,0.,0.9260990021
 H,0,0.8863859242,0.,-0.272991567
 Recover connectivity data from disk.
 NAtoms=      3 NQM=        3 NQMF=       0 NMMI=      0 NMMIF=      0
                NMic=       0 NMicF=      0.
                    Isotopes and Nuclear Properties:
 (Nuclear quadrupole moments (NQMom) in fm**2, nuclear magnetic moments (NMagM)
  in nuclear magnetons)

  Atom         1           2           3
 IAtWgt=          16           1           1
 AtmWgt=  15.9949146   1.0078250   1.0078250
 NucSpn=           0           1           1
 AtZEff=  -5.6000000  -1.0000000  -1.0000000
 NQMom=    0.0000000   0.0000000   0.0000000
 NMagM=    0.0000000   2.7928460   2.7928460
 AtZNuc=   8.0000000   1.0000000   1.0000000
 Leave Link  101 at Wed Oct 17 14:57:53 2018, MaxMem=   536870912 cpu:         0.1
 (Enter /home/slavicek/G03/g09-altix/g09/l103.exe)

 GradGradGradGradGradGradGradGradGradGradGradGradGradGradGradGradGradGrad
 Berny optimization.
 Initialization pass.
 Trust Radius=3.00D-01 FncErr=1.00D-07 GrdErr=1.00D-07
 Number of steps in this run=      2 maximum allowed number of steps=      2.
 GradGradGradGradGradGradGradGradGradGradGradGradGradGradGradGradGradGrad

 Leave Link  103 at Wed Oct 17 14:57:53 2018, MaxMem=   536870912 cpu:         0.0
 (Enter /home/slavicek/G03/g09-altix/g09/l202.exe)
                          Input orientation:                          
 ---------------------------------------------------------------------
 Center     Atomic      Atomic             Coordinates (Angstroms)
 Number     Number       Type             X           Y           Z
 ---------------------------------------------------------------------
      1          8           0       -0.052664    0.000000   -0.041146
      2          1           0       -0.050446    0.000000    0.926099
      3          1           0        0.886386    0.000000   -0.272991
 ---------------------------------------------------------------------
                    Distance matrix (angstroms):
                    1          2          3
     1  O    0.000000
     2  H    0.967247   0.000000
     3  H    0.967247   1.521668   0.000000
 Stoichiometry    H2O(1+,2)
 Framework group  C2V[C2(O),SGV(H2)]
 Deg. of freedom     2
 Full point group                 C2V     NOp   4
 RotChk:  IX=3 Diff= 9.75D-16
 Largest Abelian subgroup         C2V     NOp   4
 Largest concise Abelian subgroup C2      NOp   2
                         Standard orientation:                         
 ---------------------------------------------------------------------
 Center     Atomic      Atomic             Coordinates (Angstroms)
 Number     Number       Type             X           Y           Z
 ---------------------------------------------------------------------
      1          8           0        0.000000    0.000000    0.119449
      2          1           0        0.000000   -0.760834   -0.477795
      3          1           0        0.000000    0.760834   -0.477795
 ---------------------------------------------------------------------
 Rotational constants (GHZ):    791.4890403    433.1341627    279.9399374
 Leave Link  202 at Wed Oct 17 14:57:53 2018, MaxMem=   536870912 cpu:         0.0
 (Enter /home/slavicek/G03/g09-altix/g09/l301.exe)
 Standard basis: 6-31++G(d,p) (6D, 7F)
 Ernie: Thresh=  0.10000D-02 Tol=  0.10000D-05 Strict=F.
 There are    15 symmetry adapted cartesian basis functions of A1  symmetry.
 There are     2 symmetry adapted cartesian basis functions of A2  symmetry.
 There are     5 symmetry adapted cartesian basis functions of B1  symmetry.
 There are     9 symmetry adapted cartesian basis functions of B2  symmetry.
 There are    15 symmetry adapted basis functions of A1  symmetry.
 There are     2 symmetry adapted basis functions of A2  symmetry.
 There are     5 symmetry adapted basis functions of B1  symmetry.
 There are     9 symmetry adapted basis functions of B2  symmetry.
    31 basis functions,    48 primitive gaussians,    31 cartesian basis functions
     5 alpha electrons        4 beta electrons
       nuclear repulsion energy         9.1012972477 Hartrees.
 IExCor=  402 DFT=T Ex+Corr=BHandHLYP ExCW=0 ScaHFX=  0.500000
 ScaDFX=  0.500000  0.500000  1.000000  1.000000 ScalE2=  1.000000  1.000000
 IRadAn=      0 IRanWt=     -1 IRanGd=            0 ICorTp=0 IEmpDi=  4
 NAtoms=    3 NActive=    3 NUniq=    2 SFac= 2.25D+00 NAtFMM=   60 NAOKFM=F Big=F
 Integral buffers will be    131072 words long.
 Regular integral format.
 Two-electron integral symmetry is turned on.
 Leave Link  301 at Wed Oct 17 14:57:53 2018, MaxMem=   536870912 cpu:         0.0
 (Enter /home/slavicek/G03/g09-altix/g09/l302.exe)
 NPDir=0 NMtPBC=     1 NCelOv=     1 NCel=       1 NClECP=     1 NCelD=      1
         NCelK=      1 NCelE2=     1 NClLst=     1 CellRange=     0.0.
 One-electron integrals computed using PRISM.
 One-electron integral symmetry used in STVInt
 NBasis=    31 RedAO= T EigKep=  2.05D-02  NBF=    15     2     5     9
 NBsUse=    31 1.00D-06 EigRej= -1.00D+00 NBFU=    15     2     5     9
 Precomputing XC quadrature grid using
 IXCGrd= 4 IRadAn=           0 IRanWt=          -1 IRanGd=           0 AccXCQ= 0.00D+00.
 Generated NRdTot=       0 NPtTot=           0 NUsed=           0 NTot=          32
 NSgBfM=    31    31    31    31    31 MxSgAt=     3 MxSgA2=     3.
 Leave Link  302 at Wed Oct 17 14:57:54 2018, MaxMem=   536870912 cpu:         0.1
 (Enter /home/slavicek/G03/g09-altix/g09/l308.exe)
 Leave Link  308 at Wed Oct 17 14:57:54 2018, MaxMem=   536870912 cpu:         0.0
 (Enter /home/slavicek/G03/g09-altix/g09/l303.exe)
 DipDrv:  MaxL=1.
 Leave Link  303 at Wed Oct 17 14:57:54 2018, MaxMem=   536870912 cpu:         0.0
 (Enter /home/slavicek/G03/g09-altix/g09/l401.exe)
 Initial guess from the checkpoint file:  "checkpoint.chk"
 B after Tr=     0.000000    0.000000    0.000000
         Rot=    1.000000    0.000000    0.000000    0.000000 Ang=   0.00 deg.
 Guess basis will be translated and rotated to current coordinates.
 JPrj=2 DoOrth=T DoCkMO=T.
 Initial guess orbital symmetries:
 Alpha Orbitals:
       Occupied  (A1) (A1) (B2) (B1) (A1)
       Virtual   (A1) (B2) (B1) (A1) (B2) (A1) (B2) (A1) (B2) (A1)
                 (B1) (A1) (B2) (A1) (A2) (A1) (B1) (A1) (B2) (B2)
                 (A2) (B1) (A1) (A1) (B2) (A1)
 Beta  Orbitals:
       Occupied  (A1) (A1) (B2) (A1)
       Virtual   (B1) (A1) (B2) (A1) (B1) (B2) (A1) (B2) (A1) (B2)
                 (A1) (A1) (B1) (B2) (A1) (A2) (A1) (B1) (A1) (B2)
                 (B2) (A2) (B1) (A1) (A1) (B2) (A1)
 The electronic state of the initial guess is 2-B1.
 Initial guess <Sx>= 0.0000 <Sy>= 0.0000 <Sz>= 0.5000 <S**2>= 0.7532 S= 0.5016
 Leave Link  401 at Wed Oct 17 14:57:54 2018, MaxMem=   536870912 cpu:         0.1
 (Enter /home/slavicek/G03/g09-altix/g09/l502.exe)
