 Entering Gaussian System, Link 0=/home/slavicek/G03/g09-altix/g09//g09
 Input=input.com
 Output=input.log
 Initial command:
 /home/slavicek/G03/g09-altix/g09/l1.exe "/home/chalabaj/SNAFU/ABINITIO/scratch/Gau-32285.inp" -scrdir="/home/chalabaj/SNAFU/ABINITIO/scratch/"
 Entering Link 1 = /home/slavicek/G03/g09-altix/g09/l1.exe PID=     32287.
  
 Copyright (c) 1988,1990,1992,1993,1995,1998,2003,2009,2013,
            Gaussian, Inc.  All Rights Reserved.
  
 This is part of the Gaussian(R) 09 program.  It is based on
 the Gaussian(R) 03 system (copyright 2003, Gaussian, Inc.),
 the Gaussian(R) 98 system (copyright 1998, Gaussian, Inc.),
 the Gaussian(R) 94 system (copyright 1995, Gaussian, Inc.),
 the Gaussian 92(TM) system (copyright 1992, Gaussian, Inc.),
 the Gaussian 90(TM) system (copyright 1990, Gaussian, Inc.),
 the Gaussian 88(TM) system (copyright 1988, Gaussian, Inc.),
 the Gaussian 86(TM) system (copyright 1986, Carnegie Mellon
 University), and the Gaussian 82(TM) system (copyright 1983,
 Carnegie Mellon University). Gaussian is a federally registered
 trademark of Gaussian, Inc.
  
 This software contains proprietary and confidential information,
 including trade secrets, belonging to Gaussian, Inc.
  
 This software is provided under written license and may be
 used, copied, transmitted, or stored only in accord with that
 written license.
  
 The following legend is applicable only to US Government
 contracts under FAR:
  
                    RESTRICTED RIGHTS LEGEND
  
 Use, reproduction and disclosure by the US Government is
 subject to restrictions as set forth in subparagraphs (a)
 and (c) of the Commercial Computer Software - Restricted
 Rights clause in FAR 52.227-19.
  
 Gaussian, Inc.
 340 Quinnipiac St., Bldg. 40, Wallingford CT 06492
  
  
 ---------------------------------------------------------------
 Warning -- This program may not be used in any manner that
 competes with the business of Gaussian, Inc. or will provide
 assistance to any competitor of Gaussian, Inc.  The licensee
 of this program is prohibited from giving any competitor of
 Gaussian, Inc. access to this program.  By using this program,
 the user acknowledges that Gaussian, Inc. is engaged in the
 business of creating and licensing software in the field of
 computational chemistry and represents and warrants to the
 licensee that it is not a competitor of Gaussian, Inc. and that
 it will not use this program in any manner prohibited above.
 ---------------------------------------------------------------
  

 Cite this work as:
 Gaussian 09, Revision D.01,
 M. J. Frisch, G. W. Trucks, H. B. Schlegel, G. E. Scuseria, 
 M. A. Robb, J. R. Cheeseman, G. Scalmani, V. Barone, B. Mennucci, 
 G. A. Petersson, H. Nakatsuji, M. Caricato, X. Li, H. P. Hratchian, 
 A. F. Izmaylov, J. Bloino, G. Zheng, J. L. Sonnenberg, M. Hada, 
 M. Ehara, K. Toyota, R. Fukuda, J. Hasegawa, M. Ishida, T. Nakajima, 
 Y. Honda, O. Kitao, H. Nakai, T. Vreven, J. A. Montgomery, Jr., 
 J. E. Peralta, F. Ogliaro, M. Bearpark, J. J. Heyd, E. Brothers, 
 K. N. Kudin, V. N. Staroverov, T. Keith, R. Kobayashi, J. Normand, 
 K. Raghavachari, A. Rendell, J. C. Burant, S. S. Iyengar, J. Tomasi, 
 M. Cossi, N. Rega, J. M. Millam, M. Klene, J. E. Knox, J. B. Cross, 
 V. Bakken, C. Adamo, J. Jaramillo, R. Gomperts, R. E. Stratmann, 
 O. Yazyev, A. J. Austin, R. Cammi, C. Pomelli, J. W. Ochterski, 
 R. L. Martin, K. Morokuma, V. G. Zakrzewski, G. A. Voth, 
 P. Salvador, J. J. Dannenberg, S. Dapprich, A. D. Daniels, 
 O. Farkas, J. B. Foresman, J. V. Ortiz, J. Cioslowski, 
 and D. J. Fox, Gaussian, Inc., Wallingford CT, 2013.
 
 ******************************************
 Gaussian 09:  ES64L-G09RevD.01 24-Apr-2013
                 4-Oct-2018 
 ******************************************
 %chk=checkpoint.chk
 %Mem=4Gb
 %Nproc=1
 Will use up to    1 processors via shared memory.
 ------------------------------------------------
 #P BHandHLYP/6-31g** SCF=XQC guess=(Read,TCheck)
 ------------------------------------------------
 1/38=1/1;
 2/12=2,17=6,18=5,40=1/2;
 3/5=1,6=6,7=101,11=2,16=1,25=1,30=1,74=-3/1,2,3;
 4/5=102/1;
 5/5=2,8=3,13=1/2,8;
 6/7=2,8=2,9=2,10=2,28=1/1;
 99/5=1,9=1/99;
 Leave Link    1 at Thu Oct  4 13:19:35 2018, MaxMem=   536870912 cpu:         0.0
 (Enter /home/slavicek/G03/g09-altix/g09/l101.exe)
 -------
 comment
 -------
 Symbolic Z-matrix:
 Charge =  0 Multiplicity = 1
 O                    -0.05273   0.       -0.0412 
 H                    -0.05305   0.        0.93047 
 H                     0.88999   0.       -0.27657 
 
 NAtoms=      3 NQM=        3 NQMF=       0 NMMI=      0 NMMIF=      0
                NMic=       0 NMicF=      0.
                    Isotopes and Nuclear Properties:
 (Nuclear quadrupole moments (NQMom) in fm**2, nuclear magnetic moments (NMagM)
  in nuclear magnetons)

  Atom         1           2           3
 IAtWgt=          16           1           1
 AtmWgt=  15.9949146   1.0078250   1.0078250
 NucSpn=           0           1           1
 AtZEff=   0.0000000   0.0000000   0.0000000
 NQMom=    0.0000000   0.0000000   0.0000000
 NMagM=    0.0000000   2.7928460   2.7928460
 AtZNuc=   8.0000000   1.0000000   1.0000000
 Leave Link  101 at Thu Oct  4 13:19:35 2018, MaxMem=   536870912 cpu:         0.1
 (Enter /home/slavicek/G03/g09-altix/g09/l202.exe)
                          Input orientation:                          
 ---------------------------------------------------------------------
 Center     Atomic      Atomic             Coordinates (Angstroms)
 Number     Number       Type             X           Y           Z
 ---------------------------------------------------------------------
      1          8           0       -0.052728    0.000000   -0.041195
      2          1           0       -0.053050    0.000000    0.930466
      3          1           0        0.889994    0.000000   -0.276574
 ---------------------------------------------------------------------
                    Distance matrix (angstroms):
                    1          2          3
     1  O    0.000000
     2  H    0.971662   0.000000
     3  H    0.971662   1.531757   0.000000
 Stoichiometry    H2O
 Framework group  C2V[C2(O),SGV(H2)]
 Deg. of freedom     2
 Full point group                 C2V     NOp   4
 Largest Abelian subgroup         C2V     NOp   4
 Largest concise Abelian subgroup C2      NOp   2
                         Standard orientation:                         
 ---------------------------------------------------------------------
 Center     Atomic      Atomic             Coordinates (Angstroms)
 Number     Number       Type             X           Y           Z
 ---------------------------------------------------------------------
      1          8           0        0.000000    0.000000    0.119592
      2          1           0        0.000000   -0.765878   -0.478369
      3          1           0        0.000000    0.765878   -0.478369
 ---------------------------------------------------------------------
 Rotational constants (GHZ):    789.5905477    427.4472696    277.3195039
 Leave Link  202 at Thu Oct  4 13:19:35 2018, MaxMem=   536870912 cpu:         0.0
 (Enter /home/slavicek/G03/g09-altix/g09/l301.exe)
 Standard basis: 6-31G(d,p) (6D, 7F)
 Ernie: Thresh=  0.10000D-02 Tol=  0.10000D-05 Strict=F.
 There are    12 symmetry adapted cartesian basis functions of A1  symmetry.
 There are     2 symmetry adapted cartesian basis functions of A2  symmetry.
 There are     4 symmetry adapted cartesian basis functions of B1  symmetry.
 There are     7 symmetry adapted cartesian basis functions of B2  symmetry.
 There are    12 symmetry adapted basis functions of A1  symmetry.
 There are     2 symmetry adapted basis functions of A2  symmetry.
 There are     4 symmetry adapted basis functions of B1  symmetry.
 There are     7 symmetry adapted basis functions of B2  symmetry.
    25 basis functions,    42 primitive gaussians,    25 cartesian basis functions
     5 alpha electrons        5 beta electrons
       nuclear repulsion energy         9.0592382713 Hartrees.
 IExCor=  402 DFT=T Ex+Corr=BHandHLYP ExCW=0 ScaHFX=  0.500000
 ScaDFX=  0.500000  0.500000  1.000000  1.000000 ScalE2=  1.000000  1.000000
 IRadAn=      0 IRanWt=     -1 IRanGd=            0 ICorTp=0 IEmpDi=  4
 NAtoms=    3 NActive=    3 NUniq=    2 SFac= 2.25D+00 NAtFMM=   60 NAOKFM=F Big=F
 Integral buffers will be    131072 words long.
 Raffenetti 2 integral format.
 Two-electron integral symmetry is turned on.
 Leave Link  301 at Thu Oct  4 13:19:35 2018, MaxMem=   536870912 cpu:         0.0
 (Enter /home/slavicek/G03/g09-altix/g09/l302.exe)
 NPDir=0 NMtPBC=     1 NCelOv=     1 NCel=       1 NClECP=     1 NCelD=      1
         NCelK=      1 NCelE2=     1 NClLst=     1 CellRange=     0.0.
 One-electron integrals computed using PRISM.
 One-electron integral symmetry used in STVInt
 NBasis=    25 RedAO= T EigKep=  4.15D-02  NBF=    12     2     4     7
 NBsUse=    25 1.00D-06 EigRej= -1.00D+00 NBFU=    12     2     4     7
 Precomputing XC quadrature grid using
 IXCGrd= 4 IRadAn=           0 IRanWt=          -1 IRanGd=           0 AccXCQ= 0.00D+00.
 Generated NRdTot=       0 NPtTot=           0 NUsed=           0 NTot=          32
 NSgBfM=    25    25    25    25    25 MxSgAt=     3 MxSgA2=     3.
 Leave Link  302 at Thu Oct  4 13:19:35 2018, MaxMem=   536870912 cpu:         0.1
 (Enter /home/slavicek/G03/g09-altix/g09/l303.exe)
 DipDrv:  MaxL=1.
 Leave Link  303 at Thu Oct  4 13:19:35 2018, MaxMem=   536870912 cpu:         0.0
 (Enter /home/slavicek/G03/g09-altix/g09/l401.exe)
 Initial guess from the checkpoint file:  "checkpoint.chk"
 B after Tr=     0.000000    0.000000    0.000000
         Rot=    1.000000    0.000000    0.000000    0.000000 Ang=   0.00 deg.
 Guess basis will be translated and rotated to current coordinates.
 JPrj=2 DoOrth=T DoCkMO=T.
 Initial guess orbital symmetries:
       Occupied  (A1) (A1) (B2) (A1) (B1)
       Virtual   (A1) (B2) (B2) (A1) (A1) (B1) (B2) (A1) (A2) (A1)
                 (B1) (A1) (B2) (B2) (A2) (B1) (A1) (A1) (B2) (A1)
 The electronic state of the initial guess is 1-A1.
 Leave Link  401 at Thu Oct  4 13:19:35 2018, MaxMem=   536870912 cpu:         0.1
 (Enter /home/slavicek/G03/g09-altix/g09/l502.exe)
 Closed shell SCF:
 Using DIIS extrapolation, IDIIS=  1040.
 Integral symmetry usage will be decided dynamically.
 Keep R1 ints in memory in symmetry-blocked form, NReq=922159.
 IVT=        8225 IEndB=        8225 NGot=   536870912 MDV=   536846574
 LenX=   536846574 LenY=   536845508
 Requested convergence on RMS density matrix=1.00D-08 within  64 cycles.
 Requested convergence on MAX density matrix=1.00D-06.
 Requested convergence on             energy=1.00D-06.
 No special actions if energy rises.
 FoFCou: FMM=F IPFlag=           0 FMFlag=           0 FMFlg1=           0
         NFxFlg=           0 DoJE=F BraDBF=F KetDBF=F FulRan=T
         wScrn=  0.000000 ICntrl=     600 IOpCl=  0 I1Cent=           0 NGrid=           0
         NMat0=    1 NMatS0=    325 NMatT0=    0 NMatD0=    1 NMtDS0=    0 NMtDT0=    0
 Petite list used in FoFCou.

 Cycle   1  Pass 1  IDiag  1:
 E= -76.3789013118977    
 DIIS: error= 8.08D-04 at cycle   1 NSaved=   1.
 NSaved= 1 IEnMin= 1 EnMin= -76.3789013118977     IErMin= 1 ErrMin= 8.08D-04
 ErrMax= 8.08D-04  0.00D+00 EMaxC= 1.00D-01 BMatC= 1.07D-05 BMatP= 1.07D-05
 IDIUse=3 WtCom= 9.92D-01 WtEn= 8.08D-03
 Coeff-Com:  0.100D+01
 Coeff-En:   0.100D+01
 Coeff:      0.100D+01
 Gap=     0.487 Goal=   None    Shift=    0.000
 RMSDP=1.51D-04 MaxDP=1.14D-03              OVMax= 1.56D-03

 Cycle   2  Pass 1  IDiag  1:
 E= -76.3789112165912     Delta-E=       -0.000009904693 Rises=F Damp=F
 DIIS: error= 4.30D-04 at cycle   2 NSaved=   2.
 NSaved= 2 IEnMin= 2 EnMin= -76.3789112165912     IErMin= 2 ErrMin= 4.30D-04
 ErrMax= 4.30D-04  0.00D+00 EMaxC= 1.00D-01 BMatC= 2.76D-06 BMatP= 1.07D-05
 IDIUse=3 WtCom= 9.96D-01 WtEn= 4.30D-03
 Coeff-Com:  0.254D+00 0.746D+00
 Coeff-En:   0.000D+00 0.100D+01
 Coeff:      0.253D+00 0.747D+00
 Gap=     0.488 Goal=   None    Shift=    0.000
 RMSDP=5.47D-05 MaxDP=6.05D-04 DE=-9.90D-06 OVMax= 4.90D-04

 Cycle   3  Pass 1  IDiag  1:
 E= -76.3789126842263     Delta-E=       -0.000001467635 Rises=F Damp=F
 DIIS: error= 1.81D-04 at cycle   3 NSaved=   3.
 NSaved= 3 IEnMin= 3 EnMin= -76.3789126842263     IErMin= 3 ErrMin= 1.81D-04
 ErrMax= 1.81D-04  0.00D+00 EMaxC= 1.00D-01 BMatC= 6.22D-07 BMatP= 2.76D-06
 IDIUse=3 WtCom= 9.98D-01 WtEn= 1.81D-03
 Coeff-Com: -0.372D-01 0.309D+00 0.728D+00
 Coeff-En:   0.000D+00 0.111D+00 0.889D+00
 Coeff:     -0.372D-01 0.309D+00 0.728D+00
 Gap=     0.487 Goal=   None    Shift=    0.000
 RMSDP=2.40D-05 MaxDP=2.25D-04 DE=-1.47D-06 OVMax= 2.84D-04

 Cycle   4  Pass 1  IDiag  1:
 E= -76.3789131613685     Delta-E=       -0.000000477142 Rises=F Damp=F
 DIIS: error= 1.62D-05 at cycle   4 NSaved=   4.
 NSaved= 4 IEnMin= 4 EnMin= -76.3789131613685     IErMin= 4 ErrMin= 1.62D-05
 ErrMax= 1.62D-05  0.00D+00 EMaxC= 1.00D-01 BMatC= 5.29D-09 BMatP= 6.22D-07
 IDIUse=1 WtCom= 1.00D+00 WtEn= 0.00D+00
 Coeff-Com: -0.103D-01 0.344D-02 0.852D-01 0.922D+00
 Coeff:     -0.103D-01 0.344D-02 0.852D-01 0.922D+00
 Gap=     0.487 Goal=   None    Shift=    0.000
 RMSDP=2.91D-06 MaxDP=2.24D-05 DE=-4.77D-07 OVMax= 3.72D-05

 Cycle   5  Pass 1  IDiag  1:
 E= -76.3789131674070     Delta-E=       -0.000000006038 Rises=F Damp=F
 DIIS: error= 2.90D-06 at cycle   5 NSaved=   5.
 NSaved= 5 IEnMin= 5 EnMin= -76.3789131674070     IErMin= 5 ErrMin= 2.90D-06
 ErrMax= 2.90D-06  0.00D+00 EMaxC= 1.00D-01 BMatC= 1.18D-10 BMatP= 5.29D-09
 IDIUse=1 WtCom= 1.00D+00 WtEn= 0.00D+00
 Coeff-Com:  0.214D-02-0.141D-01-0.323D-01-0.753D-01 0.112D+01
 Coeff:      0.214D-02-0.141D-01-0.323D-01-0.753D-01 0.112D+01
 Gap=     0.487 Goal=   None    Shift=    0.000
 RMSDP=1.10D-06 MaxDP=7.84D-06 DE=-6.04D-09 OVMax= 1.45D-05

 Cycle   6  Pass 1  IDiag  1:
 E= -76.3789131677106     Delta-E=       -0.000000000304 Rises=F Damp=F
 DIIS: error= 4.06D-07 at cycle   6 NSaved=   6.
 NSaved= 6 IEnMin= 6 EnMin= -76.3789131677106     IErMin= 6 ErrMin= 4.06D-07
 ErrMax= 4.06D-07  0.00D+00 EMaxC= 1.00D-01 BMatC= 1.67D-12 BMatP= 1.18D-10
 IDIUse=1 WtCom= 1.00D+00 WtEn= 0.00D+00
 Coeff-Com: -0.259D-03 0.253D-02 0.524D-02 0.137D-03-0.212D+00 0.120D+01
 Coeff:     -0.259D-03 0.253D-02 0.524D-02 0.137D-03-0.212D+00 0.120D+01
 Gap=     0.487 Goal=   None    Shift=    0.000
 RMSDP=1.39D-07 MaxDP=1.22D-06 DE=-3.04D-10 OVMax= 1.58D-06

 Cycle   7  Pass 1  IDiag  1:
 E= -76.3789131677151     Delta-E=       -0.000000000004 Rises=F Damp=F
 DIIS: error= 2.95D-08 at cycle   7 NSaved=   7.
 NSaved= 7 IEnMin= 7 EnMin= -76.3789131677151     IErMin= 7 ErrMin= 2.95D-08
 ErrMax= 2.95D-08  0.00D+00 EMaxC= 1.00D-01 BMatC= 1.46D-14 BMatP= 1.67D-12
 IDIUse=1 WtCom= 1.00D+00 WtEn= 0.00D+00
 Coeff-Com:  0.170D-04-0.229D-03-0.516D-03 0.881D-03 0.216D-01-0.191D+00
 Coeff-Com:  0.117D+01
 Coeff:      0.170D-04-0.229D-03-0.516D-03 0.881D-03 0.216D-01-0.191D+00
 Coeff:      0.117D+01
 Gap=     0.487 Goal=   None    Shift=    0.000
 RMSDP=8.76D-09 MaxDP=8.01D-08 DE=-4.49D-12 OVMax= 9.37D-08

 SCF Done:  E(RBHandHLYP) =  -76.3789131677     A.U. after    7 cycles
            NFock=  7  Conv=0.88D-08     -V/T= 2.0074
 KE= 7.581948873885D+01 PE=-1.987468431894D+02 EE= 3.748920301158D+01
 Leave Link  502 at Thu Oct  4 13:19:35 2018, MaxMem=   536870912 cpu:         0.2
 (Enter /home/slavicek/G03/g09-altix/g09/l508.exe)
 QCSCF skips out because SCF is already converged.
 Leave Link  508 at Thu Oct  4 13:19:35 2018, MaxMem=   536870912 cpu:         0.0
 (Enter /home/slavicek/G03/g09-altix/g09/l601.exe)
 Copying SCF densities to generalized density rwf, IOpCl= 0 IROHF=0.

 **********************************************************************

            Population analysis using the SCF density.

 **********************************************************************

 Orbital symmetries:
       Occupied  (A1) (A1) (B2) (A1) (B1)
       Virtual   (A1) (B2) (B2) (A1) (A1) (B1) (B2) (A1) (A2) (A1)
                 (B1) (A1) (B2) (B2) (A2) (B1) (A1) (A1) (B2) (A1)
 The electronic state is 1-A1.
 Alpha  occ. eigenvalues --  -19.68872  -1.12967  -0.58934  -0.45206  -0.37672
 Alpha virt. eigenvalues --    0.11072   0.19945   0.83754   0.89628   0.97442
 Alpha virt. eigenvalues --    0.98710   1.11080   1.25468   1.62394   1.63514
 Alpha virt. eigenvalues --    1.74151   2.34324   2.36675   2.55693   2.75050
 Alpha virt. eigenvalues --    2.77014   3.13442   3.43069   3.65880   3.83396
          Condensed to atoms (all electrons):
               1          2          3
     1  O    8.059207   0.290807   0.290807
     2  H    0.290807   0.415258  -0.026475
     3  H    0.290807  -0.026475   0.415258
 Mulliken charges:
               1
     1  O   -0.640821
     2  H    0.320410
     3  H    0.320410
 Sum of Mulliken charges =   0.00000
 Mulliken charges with hydrogens summed into heavy atoms:
               1
     1  O    0.000000
 Electronic spatial extent (au):  <R**2>=             19.0925
 Charge=              0.0000 electrons
 Dipole moment (field-independent basis, Debye):
    X=              0.0000    Y=              0.0000    Z=             -2.1154  Tot=              2.1154
 Quadrupole moment (field-independent basis, Debye-Ang):
   XX=             -7.1574   YY=             -4.1881   ZZ=             -5.9518
   XY=              0.0000   XZ=              0.0000   YZ=              0.0000
 Traceless Quadrupole moment (field-independent basis, Debye-Ang):
   XX=             -1.3916   YY=              1.5777   ZZ=             -0.1860
   XY=              0.0000   XZ=              0.0000   YZ=              0.0000
 Octapole moment (field-independent basis, Debye-Ang**2):
  XXX=              0.0000  YYY=              0.0000  ZZZ=             -1.2469  XYY=              0.0000
  XXY=              0.0000  XXZ=             -0.3133  XZZ=              0.0000  YZZ=              0.0000
  YYZ=             -1.3040  XYZ=              0.0000
 Hexadecapole moment (field-independent basis, Debye-Ang**3):
 XXXX=             -5.1357 YYYY=             -5.9327 ZZZZ=             -6.2430 XXXY=              0.0000
 XXXZ=              0.0000 YYYX=              0.0000 YYYZ=              0.0000 ZZZX=              0.0000
 ZZZY=              0.0000 XXYY=             -2.1208 XXZZ=             -1.9526 YYZZ=             -1.6705
 XXYZ=              0.0000 YYXZ=              0.0000 ZZXY=              0.0000
 N-N= 9.059238271256D+00 E-N=-1.987468429087D+02  KE= 7.581948873885D+01
 Symmetry A1   KE= 6.771025065880D+01
 Symmetry A2   KE= 2.125788567514D-35
 Symmetry B1   KE= 4.584801628425D+00
 Symmetry B2   KE= 3.524436451625D+00
 No NMR shielding tensors so no spin-rotation constants.
 Leave Link  601 at Thu Oct  4 13:19:35 2018, MaxMem=   536870912 cpu:         0.1
 (Enter /home/slavicek/G03/g09-altix/g09/l9999.exe)
 1\1\GINC-403-AS67-01\SP\RBHandHLYP\6-31G(d,p)\H2O1\CHALABAJ\04-Oct-201
 8\0\\#P BHandHLYP/6-31g** SCF=XQC guess=(Read,TCheck)\\comment\\0,1\O,
 0,-0.0527276185,0.,-0.0411953269\H,0,-0.0530499545,0.,0.9304664407\H,0
 ,0.889993789,0.,-0.2765743094\\Version=ES64L-G09RevD.01\State=1-A1\HF=
 -76.3789132\RMSD=8.760e-09\Dipole=0.6558263,0.,0.5123879\Quadrupole=0.
 3587144,-1.0346523,0.6759379,0.,-0.6361581,0.\PG=C02V [C2(O1),SGV(H2)]
 \\@


 CONTRAIWISE...CONTINUED TWEEDLEDEE, IF IT WAS SO, IT MIGHT BE,
 AND IF IT WERE SO, IT WOULD BE.....
 BUT AS IT ISN'T, IT AIN'T....
 THAT'S LOGIC.....
 ALICE THROUGH THE LOOKING GLASS
 Job cpu time:       0 days  0 hours  0 minutes  0.7 seconds.
 File lengths (MBytes):  RWF=      5 Int=      0 D2E=      0 Chk=      1 Scr=      1
 Normal termination of Gaussian 09 at Thu Oct  4 13:19:36 2018.
 Initial command:
 /home/slavicek/G03/g09-altix/g09/l1.exe "/home/chalabaj/SNAFU/ABINITIO/scratch/Gau-32285.inp" -scrdir="/home/chalabaj/SNAFU/ABINITIO/scratch/"
 Entering Link 1 = /home/slavicek/G03/g09-altix/g09/l1.exe PID=     32289.
  
 Copyright (c) 1988,1990,1992,1993,1995,1998,2003,2009,2013,
            Gaussian, Inc.  All Rights Reserved.
  
 This is part of the Gaussian(R) 09 program.  It is based on
 the Gaussian(R) 03 system (copyright 2003, Gaussian, Inc.),
 the Gaussian(R) 98 system (copyright 1998, Gaussian, Inc.),
 the Gaussian(R) 94 system (copyright 1995, Gaussian, Inc.),
 the Gaussian 92(TM) system (copyright 1992, Gaussian, Inc.),
 the Gaussian 90(TM) system (copyright 1990, Gaussian, Inc.),
 the Gaussian 88(TM) system (copyright 1988, Gaussian, Inc.),
 the Gaussian 86(TM) system (copyright 1986, Carnegie Mellon
 University), and the Gaussian 82(TM) system (copyright 1983,
 Carnegie Mellon University). Gaussian is a federally registered
 trademark of Gaussian, Inc.
  
 This software contains proprietary and confidential information,
 including trade secrets, belonging to Gaussian, Inc.
  
 This software is provided under written license and may be
 used, copied, transmitted, or stored only in accord with that
 written license.
  
 The following legend is applicable only to US Government
 contracts under FAR:
  
                    RESTRICTED RIGHTS LEGEND
  
 Use, reproduction and disclosure by the US Government is
 subject to restrictions as set forth in subparagraphs (a)
 and (c) of the Commercial Computer Software - Restricted
 Rights clause in FAR 52.227-19.
  
 Gaussian, Inc.
 340 Quinnipiac St., Bldg. 40, Wallingford CT 06492
  
  
 ---------------------------------------------------------------
 Warning -- This program may not be used in any manner that
 competes with the business of Gaussian, Inc. or will provide
 assistance to any competitor of Gaussian, Inc.  The licensee
 of this program is prohibited from giving any competitor of
 Gaussian, Inc. access to this program.  By using this program,
 the user acknowledges that Gaussian, Inc. is engaged in the
 business of creating and licensing software in the field of
 computational chemistry and represents and warrants to the
 licensee that it is not a competitor of Gaussian, Inc. and that
 it will not use this program in any manner prohibited above.
 ---------------------------------------------------------------
  

 Cite this work as:
 Gaussian 09, Revision D.01,
 M. J. Frisch, G. W. Trucks, H. B. Schlegel, G. E. Scuseria, 
 M. A. Robb, J. R. Cheeseman, G. Scalmani, V. Barone, B. Mennucci, 
 G. A. Petersson, H. Nakatsuji, M. Caricato, X. Li, H. P. Hratchian, 
 A. F. Izmaylov, J. Bloino, G. Zheng, J. L. Sonnenberg, M. Hada, 
 M. Ehara, K. Toyota, R. Fukuda, J. Hasegawa, M. Ishida, T. Nakajima, 
 Y. Honda, O. Kitao, H. Nakai, T. Vreven, J. A. Montgomery, Jr., 
 J. E. Peralta, F. Ogliaro, M. Bearpark, J. J. Heyd, E. Brothers, 
 K. N. Kudin, V. N. Staroverov, T. Keith, R. Kobayashi, J. Normand, 
 K. Raghavachari, A. Rendell, J. C. Burant, S. S. Iyengar, J. Tomasi, 
 M. Cossi, N. Rega, J. M. Millam, M. Klene, J. E. Knox, J. B. Cross, 
 V. Bakken, C. Adamo, J. Jaramillo, R. Gomperts, R. E. Stratmann, 
 O. Yazyev, A. J. Austin, R. Cammi, C. Pomelli, J. W. Ochterski, 
 R. L. Martin, K. Morokuma, V. G. Zakrzewski, G. A. Voth, 
 P. Salvador, J. J. Dannenberg, S. Dapprich, A. D. Daniels, 
 O. Farkas, J. B. Foresman, J. V. Ortiz, J. Cioslowski, 
 and D. J. Fox, Gaussian, Inc., Wallingford CT, 2013.
 
 ******************************************
 Gaussian 09:  ES64L-G09RevD.01 24-Apr-2013
                 4-Oct-2018 
 ******************************************
 %chk=checkpoint.chk
 %Mem=4Gb
 %Nproc=1
 Will use up to    1 processors via shared memory.
 ----------------------------------------------------------------------
 #P BHandHLYP/6-31g** SCF=XQC FORCE TD=(nstates=2,root=2,conver=5) Geom
 =Check Guess=Read
 ----------------------------------------------------------------------
 1/10=7,29=2,30=1,38=1/1,3;
 2/12=2,40=1/2;
 3/5=1,6=6,7=101,11=9,14=-4,16=1,25=1,30=1,71=1,74=-3,116=-2/1,2,8,3;
 4/5=1/1;
 5/5=2,8=3,13=1,38=6/2,8;
 8/6=1,10=2,107=2,108=2/1;
 9/8=2,9=5,15=2,41=2,42=1,70=2/14;
 10/5=4/2;
 6/7=2,8=2,9=2,10=2,18=1/1;
 7/12=6,13=5,14=2,29=1/1,2,3,16;
 1/10=7,30=1/3;
 99//99;
 Leave Link    1 at Thu Oct  4 13:19:36 2018, MaxMem=   536870912 cpu:         0.0
 (Enter /home/slavicek/G03/g09-altix/g09/l101.exe)
 -------
 comment
 -------
 Structure from the checkpoint file:  "checkpoint.chk"
 Charge =  0 Multiplicity = 1
 Z-Matrix found in file.
 O,0,-0.0527276185,0.,-0.0411953269
 H,0,-0.0530499545,0.,0.9304664407
 H,0,0.889993789,0.,-0.2765743094
 Recover connectivity data from disk.
 NAtoms=      3 NQM=        3 NQMF=       0 NMMI=      0 NMMIF=      0
                NMic=       0 NMicF=      0.
                    Isotopes and Nuclear Properties:
 (Nuclear quadrupole moments (NQMom) in fm**2, nuclear magnetic moments (NMagM)
  in nuclear magnetons)

  Atom         1           2           3
 IAtWgt=          16           1           1
 AtmWgt=  15.9949146   1.0078250   1.0078250
 NucSpn=           0           1           1
 AtZEff=  -5.6000000  -1.0000000  -1.0000000
 NQMom=    0.0000000   0.0000000   0.0000000
 NMagM=    0.0000000   2.7928460   2.7928460
 AtZNuc=   8.0000000   1.0000000   1.0000000
 Leave Link  101 at Thu Oct  4 13:19:36 2018, MaxMem=   536870912 cpu:         0.0
 (Enter /home/slavicek/G03/g09-altix/g09/l103.exe)

 GradGradGradGradGradGradGradGradGradGradGradGradGradGradGradGradGradGrad
 Berny optimization.
 Initialization pass.
 Trust Radius=3.00D-01 FncErr=1.00D-07 GrdErr=1.00D-07
 Number of steps in this run=      2 maximum allowed number of steps=      2.
 GradGradGradGradGradGradGradGradGradGradGradGradGradGradGradGradGradGrad

 Leave Link  103 at Thu Oct  4 13:19:36 2018, MaxMem=   536870912 cpu:         0.0
 (Enter /home/slavicek/G03/g09-altix/g09/l202.exe)
                          Input orientation:                          
 ---------------------------------------------------------------------
 Center     Atomic      Atomic             Coordinates (Angstroms)
 Number     Number       Type             X           Y           Z
 ---------------------------------------------------------------------
      1          8           0       -0.052728    0.000000   -0.041195
      2          1           0       -0.053050    0.000000    0.930466
      3          1           0        0.889994    0.000000   -0.276574
 ---------------------------------------------------------------------
                    Distance matrix (angstroms):
                    1          2          3
     1  O    0.000000
     2  H    0.971662   0.000000
     3  H    0.971662   1.531757   0.000000
 Stoichiometry    H2O
 Framework group  C2V[C2(O),SGV(H2)]
 Deg. of freedom     2
 Full point group                 C2V     NOp   4
 RotChk:  IX=3 Diff= 1.20D-15
 Largest Abelian subgroup         C2V     NOp   4
 Largest concise Abelian subgroup C2      NOp   2
                         Standard orientation:                         
 ---------------------------------------------------------------------
 Center     Atomic      Atomic             Coordinates (Angstroms)
 Number     Number       Type             X           Y           Z
 ---------------------------------------------------------------------
      1          8           0        0.000000    0.000000    0.119592
      2          1           0        0.000000   -0.765878   -0.478369
      3          1           0        0.000000    0.765878   -0.478369
 ---------------------------------------------------------------------
 Rotational constants (GHZ):    789.5905477    427.4472696    277.3195039
 Leave Link  202 at Thu Oct  4 13:19:36 2018, MaxMem=   536870912 cpu:         0.0
 (Enter /home/slavicek/G03/g09-altix/g09/l301.exe)
 Standard basis: 6-31G(d,p) (6D, 7F)
 Ernie: Thresh=  0.10000D-02 Tol=  0.10000D-05 Strict=F.
 There are    12 symmetry adapted cartesian basis functions of A1  symmetry.
 There are     2 symmetry adapted cartesian basis functions of A2  symmetry.
 There are     4 symmetry adapted cartesian basis functions of B1  symmetry.
 There are     7 symmetry adapted cartesian basis functions of B2  symmetry.
 There are    12 symmetry adapted basis functions of A1  symmetry.
 There are     2 symmetry adapted basis functions of A2  symmetry.
 There are     4 symmetry adapted basis functions of B1  symmetry.
 There are     7 symmetry adapted basis functions of B2  symmetry.
    25 basis functions,    42 primitive gaussians,    25 cartesian basis functions
     5 alpha electrons        5 beta electrons
       nuclear repulsion energy         9.0592382713 Hartrees.
 IExCor=  402 DFT=T Ex+Corr=BHandHLYP ExCW=0 ScaHFX=  0.500000
 ScaDFX=  0.500000  0.500000  1.000000  1.000000 ScalE2=  1.000000  1.000000
 IRadAn=      0 IRanWt=     -1 IRanGd=            0 ICorTp=0 IEmpDi=  4
 NAtoms=    3 NActive=    3 NUniq=    2 SFac= 2.25D+00 NAtFMM=   60 NAOKFM=F Big=F
 Integral buffers will be    131072 words long.
 Regular integral format.
 Two-electron integral symmetry is turned on.
 Leave Link  301 at Thu Oct  4 13:19:36 2018, MaxMem=   536870912 cpu:         0.0
 (Enter /home/slavicek/G03/g09-altix/g09/l302.exe)
 NPDir=0 NMtPBC=     1 NCelOv=     1 NCel=       1 NClECP=     1 NCelD=      1
         NCelK=      1 NCelE2=     1 NClLst=     1 CellRange=     0.0.
 One-electron integrals computed using PRISM.
 One-electron integral symmetry used in STVInt
 NBasis=    25 RedAO= T EigKep=  4.15D-02  NBF=    12     2     4     7
 NBsUse=    25 1.00D-06 EigRej= -1.00D+00 NBFU=    12     2     4     7
 Precomputing XC quadrature grid using
 IXCGrd= 4 IRadAn=           0 IRanWt=          -1 IRanGd=           0 AccXCQ= 0.00D+00.
 Generated NRdTot=       0 NPtTot=           0 NUsed=           0 NTot=          32
 NSgBfM=    25    25    25    25    25 MxSgAt=     3 MxSgA2=     3.
 Leave Link  302 at Thu Oct  4 13:19:36 2018, MaxMem=   536870912 cpu:         0.1
 (Enter /home/slavicek/G03/g09-altix/g09/l308.exe)
 Leave Link  308 at Thu Oct  4 13:19:36 2018, MaxMem=   536870912 cpu:         0.0
 (Enter /home/slavicek/G03/g09-altix/g09/l303.exe)
 DipDrv:  MaxL=1.
 Leave Link  303 at Thu Oct  4 13:19:36 2018, MaxMem=   536870912 cpu:         0.0
 (Enter /home/slavicek/G03/g09-altix/g09/l401.exe)
 Initial guess from the checkpoint file:  "checkpoint.chk"
 B after Tr=     0.000000    0.000000    0.000000
         Rot=    1.000000    0.000000    0.000000    0.000000 Ang=   0.00 deg.
 Guess basis will be translated and rotated to current coordinates.
 JPrj=2 DoOrth=T DoCkMO=T.
 Initial guess orbital symmetries:
       Occupied  (A1) (A1) (B2) (A1) (B1)
       Virtual   (A1) (B2) (B2) (A1) (A1) (B1) (B2) (A1) (A2) (A1)
                 (B1) (A1) (B2) (B2) (A2) (B1) (A1) (A1) (B2) (A1)
 The electronic state of the initial guess is 1-A1.
 Leave Link  401 at Thu Oct  4 13:19:36 2018, MaxMem=   536870912 cpu:         0.1
 (Enter /home/slavicek/G03/g09-altix/g09/l502.exe)
