 Entering Gaussian System, Link 0=/home/slavicek/G03/g09-altix/g09//g09
 Input=input.com
 Output=input.log
 Initial command:
 /home/slavicek/G03/g09-altix/g09/l1.exe "/home/chalabaj/SNAFU/ABINITIO/scratch/Gau-27010.inp" -scrdir="/home/chalabaj/SNAFU/ABINITIO/scratch/"
 Entering Link 1 = /home/slavicek/G03/g09-altix/g09/l1.exe PID=     27012.
  
 Copyright (c) 1988,1990,1992,1993,1995,1998,2003,2009,2013,
            Gaussian, Inc.  All Rights Reserved.
  
 This is part of the Gaussian(R) 09 program.  It is based on
 the Gaussian(R) 03 system (copyright 2003, Gaussian, Inc.),
 the Gaussian(R) 98 system (copyright 1998, Gaussian, Inc.),
 the Gaussian(R) 94 system (copyright 1995, Gaussian, Inc.),
 the Gaussian 92(TM) system (copyright 1992, Gaussian, Inc.),
 the Gaussian 90(TM) system (copyright 1990, Gaussian, Inc.),
 the Gaussian 88(TM) system (copyright 1988, Gaussian, Inc.),
 the Gaussian 86(TM) system (copyright 1986, Carnegie Mellon
 University), and the Gaussian 82(TM) system (copyright 1983,
 Carnegie Mellon University). Gaussian is a federally registered
 trademark of Gaussian, Inc.
  
 This software contains proprietary and confidential information,
 including trade secrets, belonging to Gaussian, Inc.
  
 This software is provided under written license and may be
 used, copied, transmitted, or stored only in accord with that
 written license.
  
 The following legend is applicable only to US Government
 contracts under FAR:
  
                    RESTRICTED RIGHTS LEGEND
  
 Use, reproduction and disclosure by the US Government is
 subject to restrictions as set forth in subparagraphs (a)
 and (c) of the Commercial Computer Software - Restricted
 Rights clause in FAR 52.227-19.
  
 Gaussian, Inc.
 340 Quinnipiac St., Bldg. 40, Wallingford CT 06492
  
  
 ---------------------------------------------------------------
 Warning -- This program may not be used in any manner that
 competes with the business of Gaussian, Inc. or will provide
 assistance to any competitor of Gaussian, Inc.  The licensee
 of this program is prohibited from giving any competitor of
 Gaussian, Inc. access to this program.  By using this program,
 the user acknowledges that Gaussian, Inc. is engaged in the
 business of creating and licensing software in the field of
 computational chemistry and represents and warrants to the
 licensee that it is not a competitor of Gaussian, Inc. and that
 it will not use this program in any manner prohibited above.
 ---------------------------------------------------------------
  

 Cite this work as:
 Gaussian 09, Revision D.01,
 M. J. Frisch, G. W. Trucks, H. B. Schlegel, G. E. Scuseria, 
 M. A. Robb, J. R. Cheeseman, G. Scalmani, V. Barone, B. Mennucci, 
 G. A. Petersson, H. Nakatsuji, M. Caricato, X. Li, H. P. Hratchian, 
 A. F. Izmaylov, J. Bloino, G. Zheng, J. L. Sonnenberg, M. Hada, 
 M. Ehara, K. Toyota, R. Fukuda, J. Hasegawa, M. Ishida, T. Nakajima, 
 Y. Honda, O. Kitao, H. Nakai, T. Vreven, J. A. Montgomery, Jr., 
 J. E. Peralta, F. Ogliaro, M. Bearpark, J. J. Heyd, E. Brothers, 
 K. N. Kudin, V. N. Staroverov, T. Keith, R. Kobayashi, J. Normand, 
 K. Raghavachari, A. Rendell, J. C. Burant, S. S. Iyengar, J. Tomasi, 
 M. Cossi, N. Rega, J. M. Millam, M. Klene, J. E. Knox, J. B. Cross, 
 V. Bakken, C. Adamo, J. Jaramillo, R. Gomperts, R. E. Stratmann, 
 O. Yazyev, A. J. Austin, R. Cammi, C. Pomelli, J. W. Ochterski, 
 R. L. Martin, K. Morokuma, V. G. Zakrzewski, G. A. Voth, 
 P. Salvador, J. J. Dannenberg, S. Dapprich, A. D. Daniels, 
 O. Farkas, J. B. Foresman, J. V. Ortiz, J. Cioslowski, 
 and D. J. Fox, Gaussian, Inc., Wallingford CT, 2013.
 
 ******************************************
 Gaussian 09:  ES64L-G09RevD.01 24-Apr-2013
                23-Oct-2018 
 ******************************************
 %chk=checkpoint.chk
 %Mem=4Gb
 %Nproc=1
 Will use up to    1 processors via shared memory.
 --------------------------------------------------
 #P BHandHLYP/6-31++g** SCF=XQC guess=(Read,TCheck)
 --------------------------------------------------
 1/38=1/1;
 2/12=2,17=6,18=5,40=1/2;
 3/5=1,6=6,7=1111,11=2,16=1,25=1,30=1,74=-3/1,2,3;
 4/5=102/1;
 5/5=2,8=3,13=1/2,8;
 6/7=2,8=2,9=2,10=2,28=1/1;
 99/5=1,9=1/99;
 Leave Link    1 at Tue Oct 23 11:00:54 2018, MaxMem=   536870912 cpu:         0.0
 (Enter /home/slavicek/G03/g09-altix/g09/l101.exe)
 -------
 comment
 -------
 Symbolic Z-matrix:
 Charge =  1 Multiplicity = 2
 O                    -0.05219   0.       -0.04077 
 H                    -0.05275   0.        0.92125 
 H                     0.88113   0.       -0.27406 
 
 NAtoms=      3 NQM=        3 NQMF=       0 NMMI=      0 NMMIF=      0
                NMic=       0 NMicF=      0.
                    Isotopes and Nuclear Properties:
 (Nuclear quadrupole moments (NQMom) in fm**2, nuclear magnetic moments (NMagM)
  in nuclear magnetons)

  Atom         1           2           3
 IAtWgt=          16           1           1
 AtmWgt=  15.9949146   1.0078250   1.0078250
 NucSpn=           0           1           1
 AtZEff=   0.0000000   0.0000000   0.0000000
 NQMom=    0.0000000   0.0000000   0.0000000
 NMagM=    0.0000000   2.7928460   2.7928460
 AtZNuc=   8.0000000   1.0000000   1.0000000
 Leave Link  101 at Tue Oct 23 11:00:54 2018, MaxMem=   536870912 cpu:         0.1
 (Enter /home/slavicek/G03/g09-altix/g09/l202.exe)
                          Input orientation:                          
 ---------------------------------------------------------------------
 Center     Atomic      Atomic             Coordinates (Angstroms)
 Number     Number       Type             X           Y           Z
 ---------------------------------------------------------------------
      1          8           0       -0.052188    0.000000   -0.040773
      2          1           0       -0.052754    0.000000    0.921254
      3          1           0        0.881127    0.000000   -0.274058
 ---------------------------------------------------------------------
                    Distance matrix (angstroms):
                    1          2          3
     1  O    0.000000
     2  H    0.962028   0.000000
     3  H    0.962028   1.516874   0.000000
 Stoichiometry    H2O(1+,2)
 Framework group  C2V[C2(O),SGV(H2)]
 Deg. of freedom     2
 Full point group                 C2V     NOp   4
 Largest Abelian subgroup         C2V     NOp   4
 Largest concise Abelian subgroup C2      NOp   2
                         Standard orientation:                         
 ---------------------------------------------------------------------
 Center     Atomic      Atomic             Coordinates (Angstroms)
 Number     Number       Type             X           Y           Z
 ---------------------------------------------------------------------
      1          8           0        0.000000    0.000000    0.118367
      2          1           0        0.000000   -0.758437   -0.473470
      3          1           0        0.000000    0.758437   -0.473470
 ---------------------------------------------------------------------
 Rotational constants (GHZ):    806.0137327    435.8763127    282.8932361
 Leave Link  202 at Tue Oct 23 11:00:54 2018, MaxMem=   536870912 cpu:         0.0
 (Enter /home/slavicek/G03/g09-altix/g09/l301.exe)
 Standard basis: 6-31++G(d,p) (6D, 7F)
 Ernie: Thresh=  0.10000D-02 Tol=  0.10000D-05 Strict=F.
 There are    15 symmetry adapted cartesian basis functions of A1  symmetry.
 There are     2 symmetry adapted cartesian basis functions of A2  symmetry.
 There are     5 symmetry adapted cartesian basis functions of B1  symmetry.
 There are     9 symmetry adapted cartesian basis functions of B2  symmetry.
 There are    15 symmetry adapted basis functions of A1  symmetry.
 There are     2 symmetry adapted basis functions of A2  symmetry.
 There are     5 symmetry adapted basis functions of B1  symmetry.
 There are     9 symmetry adapted basis functions of B2  symmetry.
    31 basis functions,    48 primitive gaussians,    31 cartesian basis functions
     5 alpha electrons        4 beta electrons
       nuclear repulsion energy         9.1498875943 Hartrees.
 IExCor=  402 DFT=T Ex+Corr=BHandHLYP ExCW=0 ScaHFX=  0.500000
 ScaDFX=  0.500000  0.500000  1.000000  1.000000 ScalE2=  1.000000  1.000000
 IRadAn=      0 IRanWt=     -1 IRanGd=            0 ICorTp=0 IEmpDi=  4
 NAtoms=    3 NActive=    3 NUniq=    2 SFac= 2.25D+00 NAtFMM=   60 NAOKFM=F Big=F
 Integral buffers will be    131072 words long.
 Raffenetti 2 integral format.
 Two-electron integral symmetry is turned on.
 Leave Link  301 at Tue Oct 23 11:00:54 2018, MaxMem=   536870912 cpu:         0.0
 (Enter /home/slavicek/G03/g09-altix/g09/l302.exe)
 NPDir=0 NMtPBC=     1 NCelOv=     1 NCel=       1 NClECP=     1 NCelD=      1
         NCelK=      1 NCelE2=     1 NClLst=     1 CellRange=     0.0.
 One-electron integrals computed using PRISM.
 One-electron integral symmetry used in STVInt
 NBasis=    31 RedAO= T EigKep=  2.04D-02  NBF=    15     2     5     9
 NBsUse=    31 1.00D-06 EigRej= -1.00D+00 NBFU=    15     2     5     9
 Precomputing XC quadrature grid using
 IXCGrd= 4 IRadAn=           0 IRanWt=          -1 IRanGd=           0 AccXCQ= 0.00D+00.
 Generated NRdTot=       0 NPtTot=           0 NUsed=           0 NTot=          32
 NSgBfM=    31    31    31    31    31 MxSgAt=     3 MxSgA2=     3.
 Leave Link  302 at Tue Oct 23 11:00:54 2018, MaxMem=   536870912 cpu:         0.1
 (Enter /home/slavicek/G03/g09-altix/g09/l303.exe)
 DipDrv:  MaxL=1.
 Leave Link  303 at Tue Oct 23 11:00:54 2018, MaxMem=   536870912 cpu:         0.0
 (Enter /home/slavicek/G03/g09-altix/g09/l401.exe)
 Initial guess from the checkpoint file:  "checkpoint.chk"
 B after Tr=     0.000000    0.000000    0.000000
         Rot=    1.000000    0.000000    0.000000    0.000000 Ang=   0.00 deg.
 Guess basis will be translated and rotated to current coordinates.
 JPrj=2 DoOrth=T DoCkMO=T.
 Initial guess orbital symmetries:
 Alpha Orbitals:
       Occupied  (A1) (A1) (B2) (B1) (A1)
       Virtual   (A1) (B2) (B1) (A1) (B2) (A1) (B2) (A1) (B2) (A1)
                 (B1) (A1) (B2) (A1) (A2) (A1) (B1) (A1) (B2) (B2)
                 (A2) (B1) (A1) (A1) (B2) (A1)
 Beta  Orbitals:
       Occupied  (A1) (A1) (B2) (A1)
       Virtual   (B1) (A1) (B2) (A1) (B1) (B2) (A1) (B2) (A1) (B2)
                 (A1) (A1) (B1) (B2) (A1) (A2) (A1) (B1) (A1) (B2)
                 (B2) (A2) (B1) (A1) (A1) (B2) (A1)
 The electronic state of the initial guess is 2-B1.
 Initial guess <Sx>= 0.0000 <Sy>= 0.0000 <Sz>= 0.5000 <S**2>= 0.7532 S= 0.5016
 Leave Link  401 at Tue Oct 23 11:00:54 2018, MaxMem=   536870912 cpu:         0.1
 (Enter /home/slavicek/G03/g09-altix/g09/l502.exe)
 UHF open shell SCF:
 Using DIIS extrapolation, IDIIS=  1040.
 Integral symmetry usage will be decided dynamically.
 Keep R1 and R2 ints in memory in symmetry-blocked form, NReq=994454.
 IVT=        9329 IEndB=        9329 NGot=   536870912 MDV=   536790415
 LenX=   536790415 LenY=   536789013
 Requested convergence on RMS density matrix=1.00D-08 within  64 cycles.
 Requested convergence on MAX density matrix=1.00D-06.
 Requested convergence on             energy=1.00D-06.
 No special actions if energy rises.
 FoFCou: FMM=F IPFlag=           0 FMFlag=           0 FMFlg1=           0
         NFxFlg=           0 DoJE=F BraDBF=F KetDBF=F FulRan=T
         wScrn=  0.000000 ICntrl=     600 IOpCl=  0 I1Cent=           0 NGrid=           0
         NMat0=    1 NMatS0=    496 NMatT0=    0 NMatD0=    1 NMtDS0=    0 NMtDT0=    0
 Petite list used in FoFCou.

 Cycle   1  Pass 1  IDiag  1:
 E= -75.9355824552754    
 DIIS: error= 1.26D-04 at cycle   1 NSaved=   1.
 NSaved= 1 IEnMin= 1 EnMin= -75.9355824552754     IErMin= 1 ErrMin= 1.26D-04
 ErrMax= 1.26D-04  0.00D+00 EMaxC= 1.00D-01 BMatC= 1.14D-06 BMatP= 1.14D-06
 IDIUse=3 WtCom= 9.99D-01 WtEn= 1.26D-03
 Coeff-Com:  0.100D+01
 Coeff-En:   0.100D+01
 Coeff:      0.100D+01
 Gap=     0.711 Goal=   None    Shift=    0.000
 Gap=     0.409 Goal=   None    Shift=    0.000
 RMSDP=1.94D-05 MaxDP=1.47D-04              OVMax= 1.98D-04

 Cycle   2  Pass 1  IDiag  1:
 E= -75.9355827085121     Delta-E=       -0.000000253237 Rises=F Damp=F
 DIIS: error= 3.27D-05 at cycle   2 NSaved=   2.
 NSaved= 2 IEnMin= 2 EnMin= -75.9355827085121     IErMin= 2 ErrMin= 3.27D-05
 ErrMax= 3.27D-05  0.00D+00 EMaxC= 1.00D-01 BMatC= 1.20D-07 BMatP= 1.14D-06
 IDIUse=1 WtCom= 1.00D+00 WtEn= 0.00D+00
 Coeff-Com:  0.122D+00 0.878D+00
 Coeff:      0.122D+00 0.878D+00
 Gap=     0.711 Goal=   None    Shift=    0.000
 Gap=     0.409 Goal=   None    Shift=    0.000
 RMSDP=4.44D-06 MaxDP=6.78D-05 DE=-2.53D-07 OVMax= 5.80D-05

 Cycle   3  Pass 1  IDiag  1:
 E= -75.9355827247612     Delta-E=       -0.000000016249 Rises=F Damp=F
 DIIS: error= 1.81D-05 at cycle   3 NSaved=   3.
 NSaved= 3 IEnMin= 3 EnMin= -75.9355827247612     IErMin= 3 ErrMin= 1.81D-05
 ErrMax= 1.81D-05  0.00D+00 EMaxC= 1.00D-01 BMatC= 2.91D-08 BMatP= 1.20D-07
 IDIUse=1 WtCom= 1.00D+00 WtEn= 0.00D+00
 Coeff-Com: -0.335D-01 0.315D+00 0.719D+00
 Coeff:     -0.335D-01 0.315D+00 0.719D+00
 Gap=     0.711 Goal=   None    Shift=    0.000
 Gap=     0.409 Goal=   None    Shift=    0.000
 RMSDP=1.69D-06 MaxDP=2.82D-05 DE=-1.62D-08 OVMax= 2.81D-05

 Cycle   4  Pass 1  IDiag  1:
 E= -75.9355827302062     Delta-E=       -0.000000005445 Rises=F Damp=F
 DIIS: error= 1.61D-06 at cycle   4 NSaved=   4.
 NSaved= 4 IEnMin= 4 EnMin= -75.9355827302062     IErMin= 4 ErrMin= 1.61D-06
 ErrMax= 1.61D-06  0.00D+00 EMaxC= 1.00D-01 BMatC= 1.63D-10 BMatP= 2.91D-08
 IDIUse=1 WtCom= 1.00D+00 WtEn= 0.00D+00
 Coeff-Com: -0.401D-02-0.559D-02 0.481D-01 0.961D+00
 Coeff:     -0.401D-02-0.559D-02 0.481D-01 0.961D+00
 Gap=     0.711 Goal=   None    Shift=    0.000
 Gap=     0.409 Goal=   None    Shift=    0.000
 RMSDP=1.91D-07 MaxDP=2.29D-06 DE=-5.44D-09 OVMax= 3.84D-06

 Cycle   5  Pass 1  IDiag  1:
 E= -75.9355827302572     Delta-E=       -0.000000000051 Rises=F Damp=F
 DIIS: error= 2.87D-07 at cycle   5 NSaved=   5.
 NSaved= 5 IEnMin= 5 EnMin= -75.9355827302572     IErMin= 5 ErrMin= 2.87D-07
 ErrMax= 2.87D-07  0.00D+00 EMaxC= 1.00D-01 BMatC= 6.33D-12 BMatP= 1.63D-10
 IDIUse=1 WtCom= 1.00D+00 WtEn= 0.00D+00
 Coeff-Com:  0.159D-02-0.116D-01-0.299D-01-0.114D+00 0.115D+01
 Coeff:      0.159D-02-0.116D-01-0.299D-01-0.114D+00 0.115D+01
 Gap=     0.711 Goal=   None    Shift=    0.000
 Gap=     0.409 Goal=   None    Shift=    0.000
 RMSDP=6.38D-08 MaxDP=1.01D-06 DE=-5.10D-11 OVMax= 1.51D-06

 Cycle   6  Pass 1  IDiag  1:
 E= -75.9355827302610     Delta-E=       -0.000000000004 Rises=F Damp=F
 DIIS: error= 1.05D-07 at cycle   6 NSaved=   6.
 NSaved= 6 IEnMin= 6 EnMin= -75.9355827302610     IErMin= 6 ErrMin= 1.05D-07
 ErrMax= 1.05D-07  0.00D+00 EMaxC= 1.00D-01 BMatC= 5.58D-13 BMatP= 6.33D-12
 IDIUse=1 WtCom= 1.00D+00 WtEn= 0.00D+00
 Coeff-Com: -0.560D-03 0.552D-02 0.118D-01 0.149D-01-0.535D+00 0.150D+01
 Coeff:     -0.560D-03 0.552D-02 0.118D-01 0.149D-01-0.535D+00 0.150D+01
 Gap=     0.711 Goal=   None    Shift=    0.000
 Gap=     0.409 Goal=   None    Shift=    0.000
 RMSDP=2.19D-08 MaxDP=3.32D-07 DE=-3.78D-12 OVMax= 3.79D-07

 Cycle   7  Pass 1  IDiag  1:
 E= -75.9355827302614     Delta-E=        0.000000000000 Rises=F Damp=F
 DIIS: error= 2.46D-08 at cycle   7 NSaved=   7.
 NSaved= 7 IEnMin= 7 EnMin= -75.9355827302614     IErMin= 7 ErrMin= 2.46D-08
 ErrMax= 2.46D-08  0.00D+00 EMaxC= 1.00D-01 BMatC= 2.41D-14 BMatP= 5.58D-13
 IDIUse=1 WtCom= 1.00D+00 WtEn= 0.00D+00
 Coeff-Com:  0.103D-03-0.115D-02-0.244D-02 0.214D-04 0.119D+00-0.525D+00
 Coeff-Com:  0.141D+01
 Coeff:      0.103D-03-0.115D-02-0.244D-02 0.214D-04 0.119D+00-0.525D+00
 Coeff:      0.141D+01
 Gap=     0.711 Goal=   None    Shift=    0.000
 Gap=     0.409 Goal=   None    Shift=    0.000
 RMSDP=5.22D-09 MaxDP=7.90D-08 DE=-3.69D-13 OVMax= 1.00D-07

 SCF Done:  E(UBHandHLYP) =  -75.9355827303     A.U. after    7 cycles
            NFock=  7  Conv=0.52D-08     -V/T= 2.0061
 <Sx>= 0.0000 <Sy>= 0.0000 <Sz>= 0.5000 <S**2>= 0.7532 S= 0.5016
 <L.S>= 0.000000000000E+00
 KE= 7.547817145127D+01 PE=-1.934879227636D+02 EE= 3.292428098782D+01
 Annihilation of the first spin contaminant:
 S**2 before annihilation     0.7532,   after     0.7500
 Leave Link  502 at Tue Oct 23 11:00:55 2018, MaxMem=   536870912 cpu:         0.3
 (Enter /home/slavicek/G03/g09-altix/g09/l508.exe)
 QCSCF skips out because SCF is already converged.
 Leave Link  508 at Tue Oct 23 11:00:55 2018, MaxMem=   536870912 cpu:         0.0
 (Enter /home/slavicek/G03/g09-altix/g09/l601.exe)
 Copying SCF densities to generalized density rwf, IOpCl= 1 IROHF=0.

 **********************************************************************

            Population analysis using the SCF density.

 **********************************************************************

 Orbital symmetries:
 Alpha Orbitals:
       Occupied  (A1) (A1) (B2) (B1) (A1)
       Virtual   (A1) (B2) (B1) (A1) (B2) (A1) (B2) (A1) (B2) (A1)
                 (B1) (A1) (B2) (A1) (A2) (A1) (B1) (A1) (B2) (B2)
                 (A2) (B1) (A1) (A1) (B2) (A1)
 Beta  Orbitals:
       Occupied  (A1) (A1) (B2) (A1)
       Virtual   (B1) (A1) (B2) (A1) (B1) (B2) (A1) (B2) (A1) (B2)
                 (A1) (A1) (B1) (B2) (A1) (A2) (A1) (B1) (A1) (B2)
                 (B2) (A2) (B1) (A1) (A1) (B2) (A1)
 The electronic state is 2-B1.
 Alpha  occ. eigenvalues --  -20.27355  -1.68691  -1.09455  -0.98102  -0.96554
 Alpha virt. eigenvalues --   -0.25460  -0.17320  -0.08022  -0.07055  -0.04587
 Alpha virt. eigenvalues --   -0.04138   0.02261   0.03713   0.62417   0.70600
 Alpha virt. eigenvalues --    0.75407   0.82419   0.86617   1.05301   1.13121
 Alpha virt. eigenvalues --    1.18335   1.24444   1.89136   1.96533   2.20425
 Alpha virt. eigenvalues --    2.29929   2.34153   2.72909   3.05510   3.27946
 Alpha virt. eigenvalues --    3.71294
  Beta  occ. eigenvalues --  -20.24169  -1.58909  -1.06915  -0.92912
  Beta virt. eigenvalues --   -0.51986  -0.24657  -0.16875  -0.06780  -0.05353
  Beta virt. eigenvalues --   -0.04512  -0.03542   0.02391   0.04246   0.62636
  Beta virt. eigenvalues --    0.71846   0.83963   0.85640   0.87463   1.06965
  Beta virt. eigenvalues --    1.18242   1.21303   1.30184   1.94605   1.96056
  Beta virt. eigenvalues --    2.21071   2.32579   2.36163   2.73196   3.06746
  Beta virt. eigenvalues --    3.28635   3.74075
          Condensed to atoms (all electrons):
               1          2          3
     1  O    7.378050   0.285997   0.285997
     2  H    0.285997   0.259655  -0.020674
     3  H    0.285997  -0.020674   0.259655
          Atomic-Atomic Spin Densities.
               1          2          3
     1  O    1.072958  -0.008186  -0.008186
     2  H   -0.008186  -0.021556   0.001449
     3  H   -0.008186   0.001449  -0.021556
 Mulliken charges and spin densities:
               1          2
     1  O    0.049957   1.056586
     2  H    0.475022  -0.028293
     3  H    0.475022  -0.028293
 Sum of Mulliken charges =   1.00000   1.00000
 Mulliken charges and spin densities with hydrogens summed into heavy atoms:
               1          2
     1  O    1.000000   1.000000
 Electronic spatial extent (au):  <R**2>=             14.3960
 Charge=              1.0000 electrons
 Dipole moment (field-independent basis, Debye):
    X=              0.0000    Y=              0.0000    Z=             -2.3438  Tot=              2.3438
 Quadrupole moment (field-independent basis, Debye-Ang):
   XX=             -4.7319   YY=             -2.1238   ZZ=             -4.2896
   XY=              0.0000   XZ=              0.0000   YZ=              0.0000
 Traceless Quadrupole moment (field-independent basis, Debye-Ang):
   XX=             -1.0168   YY=              1.5913   ZZ=             -0.5745
   XY=              0.0000   XZ=              0.0000   YZ=              0.0000
 Octapole moment (field-independent basis, Debye-Ang**2):
  XXX=              0.0000  YYY=              0.0000  ZZZ=             -1.6334  XYY=              0.0000
  XXY=              0.0000  XXZ=             -0.2665  XZZ=              0.0000  YZZ=              0.0000
  YYZ=             -1.8501  XYZ=              0.0000
 Hexadecapole moment (field-independent basis, Debye-Ang**3):
 XXXX=             -2.7083 YYYY=             -2.8010 ZZZZ=             -4.3655 XXXY=              0.0000
 XXXZ=              0.0000 YYYX=              0.0000 YYYZ=              0.0000 ZZZX=              0.0000
 ZZZY=              0.0000 XXYY=             -1.2710 XXZZ=             -1.2302 YYZZ=             -0.7431
 XXYZ=              0.0000 YYXZ=              0.0000 ZZXY=              0.0000
 N-N= 9.149887594256D+00 E-N=-1.934879227112D+02  KE= 7.547817145127D+01
 Symmetry A1   KE= 6.864071824775D+01
 Symmetry A2   KE= 9.254662616201D-35
 Symmetry B1   KE= 2.708857728618D+00
 Symmetry B2   KE= 4.128595474899D+00
                          Isotropic Fermi Contact Couplings
        Atom                 a.u.       MegaHertz       Gauss      10(-4) cm-1
     1  O(17)              0.17639    -106.92518     -38.15356     -35.66640
     2  H(1)              -0.01732     -77.42007     -27.62540     -25.82455
     3  H(1)              -0.01732     -77.42007     -27.62540     -25.82455
 --------------------------------------------------------
       Center         ----  Spin Dipole Couplings  ----
                      3XX-RR        3YY-RR        3ZZ-RR
 --------------------------------------------------------
     1   Atom        3.910646     -1.926654     -1.983992
     2   Atom       -0.047054      0.069337     -0.022283
     3   Atom       -0.047054      0.069337     -0.022283
 --------------------------------------------------------
                        XY            XZ            YZ
 --------------------------------------------------------
     1   Atom        0.000000      0.000000      0.000000
     2   Atom        0.000000      0.000000      0.156523
     3   Atom        0.000000      0.000000     -0.156523
 --------------------------------------------------------


 ---------------------------------------------------------------------------------
              Anisotropic Spin Dipole Couplings in Principal Axis System
 ---------------------------------------------------------------------------------

       Atom             a.u.   MegaHertz   Gauss  10(-4) cm-1        Axes

              Baa    -1.9840   143.560    51.226    47.887  0.0000  0.0000  1.0000
     1 O(17)  Bbb    -1.9267   139.411    49.745    46.503  0.0000  1.0000  0.0000
              Bcc     3.9106  -282.972  -100.971   -94.389  1.0000  0.0000  0.0000
 
              Baa    -0.1396   -74.464   -26.571   -24.838  0.0000 -0.5996  0.8003
     2 H(1)   Bbb    -0.0471   -25.106    -8.958    -8.374  1.0000  0.0000  0.0000
              Bcc     0.1866    99.570    35.529    33.213  0.0000  0.8003  0.5996
 
              Baa    -0.1396   -74.464   -26.571   -24.838  0.0000  0.5996  0.8003
     3 H(1)   Bbb    -0.0471   -25.106    -8.958    -8.374  1.0000  0.0000  0.0000
              Bcc     0.1866    99.570    35.529    33.213  0.0000  0.8003 -0.5996
 

 ---------------------------------------------------------------------------------

 No NMR shielding tensors so no spin-rotation constants.
 Leave Link  601 at Tue Oct 23 11:00:55 2018, MaxMem=   536870912 cpu:         0.1
 (Enter /home/slavicek/G03/g09-altix/g09/l9999.exe)
 1\1\GINC-403-AS67-01\SP\UBHandHLYP\6-31++G(d,p)\H2O1(1+,2)\CHALABAJ\23
 -Oct-2018\0\\#P BHandHLYP/6-31++g** SCF=XQC guess=(Read,TCheck)\\comme
 nt\\1,2\O,0,-0.0521876699,0.,-0.0407734726\H,0,-0.0527538099,0.,0.9212
 544292\H,0,0.8811270565,0.,-0.2740583778\\Version=ES64L-G09RevD.01\Sta
 te=2-B1\HF=-75.9355827\S2=0.753189\S2-1=0.\S2A=0.750006\RMSD=5.222e-09
 \Dipole=0.7266316,0.,0.5677071\Quadrupole=0.183209,-0.7559609,0.572752
 ,0.,-0.7811872,0.\PG=C02V [C2(O1),SGV(H2)]\\@


 ... THE UNIVERSE IS NOT ONLY QUEERER THAN WE SUPPOSE,
 BUT QUEERER THAN WE CAN SUPPOSE ... 

                                   -- J. B. S. HALDANE
 Job cpu time:       0 days  0 hours  0 minutes  1.0 seconds.
 File lengths (MBytes):  RWF=      5 Int=      0 D2E=      0 Chk=      1 Scr=      1
 Normal termination of Gaussian 09 at Tue Oct 23 11:00:55 2018.
 Initial command:
 /home/slavicek/G03/g09-altix/g09/l1.exe "/home/chalabaj/SNAFU/ABINITIO/scratch/Gau-27010.inp" -scrdir="/home/chalabaj/SNAFU/ABINITIO/scratch/"
 Entering Link 1 = /home/slavicek/G03/g09-altix/g09/l1.exe PID=     27020.
  
 Copyright (c) 1988,1990,1992,1993,1995,1998,2003,2009,2013,
            Gaussian, Inc.  All Rights Reserved.
  
 This is part of the Gaussian(R) 09 program.  It is based on
 the Gaussian(R) 03 system (copyright 2003, Gaussian, Inc.),
 the Gaussian(R) 98 system (copyright 1998, Gaussian, Inc.),
 the Gaussian(R) 94 system (copyright 1995, Gaussian, Inc.),
 the Gaussian 92(TM) system (copyright 1992, Gaussian, Inc.),
 the Gaussian 90(TM) system (copyright 1990, Gaussian, Inc.),
 the Gaussian 88(TM) system (copyright 1988, Gaussian, Inc.),
 the Gaussian 86(TM) system (copyright 1986, Carnegie Mellon
 University), and the Gaussian 82(TM) system (copyright 1983,
 Carnegie Mellon University). Gaussian is a federally registered
 trademark of Gaussian, Inc.
  
 This software contains proprietary and confidential information,
 including trade secrets, belonging to Gaussian, Inc.
  
 This software is provided under written license and may be
 used, copied, transmitted, or stored only in accord with that
 written license.
  
 The following legend is applicable only to US Government
 contracts under FAR:
  
                    RESTRICTED RIGHTS LEGEND
  
 Use, reproduction and disclosure by the US Government is
 subject to restrictions as set forth in subparagraphs (a)
 and (c) of the Commercial Computer Software - Restricted
 Rights clause in FAR 52.227-19.
  
 Gaussian, Inc.
 340 Quinnipiac St., Bldg. 40, Wallingford CT 06492
  
  
 ---------------------------------------------------------------
 Warning -- This program may not be used in any manner that
 competes with the business of Gaussian, Inc. or will provide
 assistance to any competitor of Gaussian, Inc.  The licensee
 of this program is prohibited from giving any competitor of
 Gaussian, Inc. access to this program.  By using this program,
 the user acknowledges that Gaussian, Inc. is engaged in the
 business of creating and licensing software in the field of
 computational chemistry and represents and warrants to the
 licensee that it is not a competitor of Gaussian, Inc. and that
 it will not use this program in any manner prohibited above.
 ---------------------------------------------------------------
  

 Cite this work as:
 Gaussian 09, Revision D.01,
 M. J. Frisch, G. W. Trucks, H. B. Schlegel, G. E. Scuseria, 
 M. A. Robb, J. R. Cheeseman, G. Scalmani, V. Barone, B. Mennucci, 
 G. A. Petersson, H. Nakatsuji, M. Caricato, X. Li, H. P. Hratchian, 
 A. F. Izmaylov, J. Bloino, G. Zheng, J. L. Sonnenberg, M. Hada, 
 M. Ehara, K. Toyota, R. Fukuda, J. Hasegawa, M. Ishida, T. Nakajima, 
 Y. Honda, O. Kitao, H. Nakai, T. Vreven, J. A. Montgomery, Jr., 
 J. E. Peralta, F. Ogliaro, M. Bearpark, J. J. Heyd, E. Brothers, 
 K. N. Kudin, V. N. Staroverov, T. Keith, R. Kobayashi, J. Normand, 
 K. Raghavachari, A. Rendell, J. C. Burant, S. S. Iyengar, J. Tomasi, 
 M. Cossi, N. Rega, J. M. Millam, M. Klene, J. E. Knox, J. B. Cross, 
 V. Bakken, C. Adamo, J. Jaramillo, R. Gomperts, R. E. Stratmann, 
 O. Yazyev, A. J. Austin, R. Cammi, C. Pomelli, J. W. Ochterski, 
 R. L. Martin, K. Morokuma, V. G. Zakrzewski, G. A. Voth, 
 P. Salvador, J. J. Dannenberg, S. Dapprich, A. D. Daniels, 
 O. Farkas, J. B. Foresman, J. V. Ortiz, J. Cioslowski, 
 and D. J. Fox, Gaussian, Inc., Wallingford CT, 2013.
 
 ******************************************
 Gaussian 09:  ES64L-G09RevD.01 24-Apr-2013
                23-Oct-2018 
 ******************************************
 %chk=checkpoint.chk
 %Mem=4Gb
 %Nproc=1
 Will use up to    1 processors via shared memory.
 ----------------------------------------------------------------------
 #P BHandHLYP/6-31++g** SCF=XQC FORCE TD=(nstates=2,root=2,conver=5) Ge
 om=Check Guess=Read
 ----------------------------------------------------------------------
 1/10=7,29=2,30=1,38=1/1,3;
 2/12=2,40=1/2;
 3/5=1,6=6,7=1111,11=9,14=-4,16=1,25=1,30=1,71=1,74=-3,116=-2/1,2,8,3;
 4/5=1/1;
 5/5=2,8=3,13=1,38=6/2,8;
 8/6=1,10=2,107=2,108=2/1;
 9/8=2,9=5,15=2,41=2,42=1,70=2/14;
 10/5=4/2;
 6/7=2,8=2,9=2,10=2,18=1/1;
 7/12=6,13=5,14=2,29=1/1,2,3,16;
 1/10=7,30=1/3;
 99//99;
 Leave Link    1 at Tue Oct 23 11:00:55 2018, MaxMem=   536870912 cpu:         0.0
 (Enter /home/slavicek/G03/g09-altix/g09/l101.exe)
 -------
 comment
 -------
 Structure from the checkpoint file:  "checkpoint.chk"
 Charge =  1 Multiplicity = 2
 Z-Matrix found in file.
 O,0,-0.0521876699,0.,-0.0407734726
 H,0,-0.0527538099,0.,0.9212544292
 H,0,0.8811270565,0.,-0.2740583778
 Recover connectivity data from disk.
 NAtoms=      3 NQM=        3 NQMF=       0 NMMI=      0 NMMIF=      0
                NMic=       0 NMicF=      0.
                    Isotopes and Nuclear Properties:
 (Nuclear quadrupole moments (NQMom) in fm**2, nuclear magnetic moments (NMagM)
  in nuclear magnetons)

  Atom         1           2           3
 IAtWgt=          16           1           1
 AtmWgt=  15.9949146   1.0078250   1.0078250
 NucSpn=           0           1           1
 AtZEff=  -5.6000000  -1.0000000  -1.0000000
 NQMom=    0.0000000   0.0000000   0.0000000
 NMagM=    0.0000000   2.7928460   2.7928460
 AtZNuc=   8.0000000   1.0000000   1.0000000
 Leave Link  101 at Tue Oct 23 11:00:55 2018, MaxMem=   536870912 cpu:         0.1
 (Enter /home/slavicek/G03/g09-altix/g09/l103.exe)

 GradGradGradGradGradGradGradGradGradGradGradGradGradGradGradGradGradGrad
 Berny optimization.
 Initialization pass.
 Trust Radius=3.00D-01 FncErr=1.00D-07 GrdErr=1.00D-07
 Number of steps in this run=      2 maximum allowed number of steps=      2.
 GradGradGradGradGradGradGradGradGradGradGradGradGradGradGradGradGradGrad

 Leave Link  103 at Tue Oct 23 11:00:55 2018, MaxMem=   536870912 cpu:         0.0
 (Enter /home/slavicek/G03/g09-altix/g09/l202.exe)
                          Input orientation:                          
 ---------------------------------------------------------------------
 Center     Atomic      Atomic             Coordinates (Angstroms)
 Number     Number       Type             X           Y           Z
 ---------------------------------------------------------------------
      1          8           0       -0.052188    0.000000   -0.040773
      2          1           0       -0.052754    0.000000    0.921254
      3          1           0        0.881127    0.000000   -0.274058
 ---------------------------------------------------------------------
                    Distance matrix (angstroms):
                    1          2          3
     1  O    0.000000
     2  H    0.962028   0.000000
     3  H    0.962028   1.516874   0.000000
 Stoichiometry    H2O(1+,2)
 Framework group  C2V[C2(O),SGV(H2)]
 Deg. of freedom     2
 Full point group                 C2V     NOp   4
 RotChk:  IX=3 Diff= 4.34D-16
 Largest Abelian subgroup         C2V     NOp   4
 Largest concise Abelian subgroup C2      NOp   2
                         Standard orientation:                         
 ---------------------------------------------------------------------
 Center     Atomic      Atomic             Coordinates (Angstroms)
 Number     Number       Type             X           Y           Z
 ---------------------------------------------------------------------
      1          8           0        0.000000    0.000000    0.118368
      2          1           0        0.000000   -0.758437   -0.473470
      3          1           0        0.000000    0.758437   -0.473470
 ---------------------------------------------------------------------
 Rotational constants (GHZ):    806.0137327    435.8763127    282.8932361
 Leave Link  202 at Tue Oct 23 11:00:55 2018, MaxMem=   536870912 cpu:         0.0
 (Enter /home/slavicek/G03/g09-altix/g09/l301.exe)
 Standard basis: 6-31++G(d,p) (6D, 7F)
 Ernie: Thresh=  0.10000D-02 Tol=  0.10000D-05 Strict=F.
 There are    15 symmetry adapted cartesian basis functions of A1  symmetry.
 There are     2 symmetry adapted cartesian basis functions of A2  symmetry.
 There are     5 symmetry adapted cartesian basis functions of B1  symmetry.
 There are     9 symmetry adapted cartesian basis functions of B2  symmetry.
 There are    15 symmetry adapted basis functions of A1  symmetry.
 There are     2 symmetry adapted basis functions of A2  symmetry.
 There are     5 symmetry adapted basis functions of B1  symmetry.
 There are     9 symmetry adapted basis functions of B2  symmetry.
    31 basis functions,    48 primitive gaussians,    31 cartesian basis functions
     5 alpha electrons        4 beta electrons
       nuclear repulsion energy         9.1498875943 Hartrees.
 IExCor=  402 DFT=T Ex+Corr=BHandHLYP ExCW=0 ScaHFX=  0.500000
 ScaDFX=  0.500000  0.500000  1.000000  1.000000 ScalE2=  1.000000  1.000000
 IRadAn=      0 IRanWt=     -1 IRanGd=            0 ICorTp=0 IEmpDi=  4
 NAtoms=    3 NActive=    3 NUniq=    2 SFac= 2.25D+00 NAtFMM=   60 NAOKFM=F Big=F
 Integral buffers will be    131072 words long.
 Regular integral format.
 Two-electron integral symmetry is turned on.
 Leave Link  301 at Tue Oct 23 11:00:55 2018, MaxMem=   536870912 cpu:         0.0
 (Enter /home/slavicek/G03/g09-altix/g09/l302.exe)
 NPDir=0 NMtPBC=     1 NCelOv=     1 NCel=       1 NClECP=     1 NCelD=      1
         NCelK=      1 NCelE2=     1 NClLst=     1 CellRange=     0.0.
 One-electron integrals computed using PRISM.
 One-electron integral symmetry used in STVInt
 NBasis=    31 RedAO= T EigKep=  2.04D-02  NBF=    15     2     5     9
 NBsUse=    31 1.00D-06 EigRej= -1.00D+00 NBFU=    15     2     5     9
 Precomputing XC quadrature grid using
 IXCGrd= 4 IRadAn=           0 IRanWt=          -1 IRanGd=           0 AccXCQ= 0.00D+00.
 Generated NRdTot=       0 NPtTot=           0 NUsed=           0 NTot=          32
 NSgBfM=    31    31    31    31    31 MxSgAt=     3 MxSgA2=     3.
 Leave Link  302 at Tue Oct 23 11:00:55 2018, MaxMem=   536870912 cpu:         0.1
 (Enter /home/slavicek/G03/g09-altix/g09/l308.exe)
 Leave Link  308 at Tue Oct 23 11:00:55 2018, MaxMem=   536870912 cpu:         0.0
 (Enter /home/slavicek/G03/g09-altix/g09/l303.exe)
 DipDrv:  MaxL=1.
 Leave Link  303 at Tue Oct 23 11:00:55 2018, MaxMem=   536870912 cpu:         0.0
 (Enter /home/slavicek/G03/g09-altix/g09/l401.exe)
 Initial guess from the checkpoint file:  "checkpoint.chk"
 B after Tr=     0.000000    0.000000    0.000000
         Rot=    1.000000    0.000000    0.000000    0.000000 Ang=   0.00 deg.
 Guess basis will be translated and rotated to current coordinates.
 JPrj=2 DoOrth=T DoCkMO=T.
 Initial guess orbital symmetries:
 Alpha Orbitals:
       Occupied  (A1) (A1) (B2) (B1) (A1)
       Virtual   (A1) (B2) (B1) (A1) (B2) (A1) (B2) (A1) (B2) (A1)
                 (B1) (A1) (B2) (A1) (A2) (A1) (B1) (A1) (B2) (B2)
                 (A2) (B1) (A1) (A1) (B2) (A1)
 Beta  Orbitals:
       Occupied  (A1) (A1) (B2) (A1)
       Virtual   (B1) (A1) (B2) (A1) (B1) (B2) (A1) (B2) (A1) (B2)
                 (A1) (A1) (B1) (B2) (A1) (A2) (A1) (B1) (A1) (B2)
                 (B2) (A2) (B1) (A1) (A1) (B2) (A1)
 The electronic state of the initial guess is 2-B1.
 Initial guess <Sx>= 0.0000 <Sy>= 0.0000 <Sz>= 0.5000 <S**2>= 0.7532 S= 0.5016
 Leave Link  401 at Tue Oct 23 11:00:55 2018, MaxMem=   536870912 cpu:         0.1
 (Enter /home/slavicek/G03/g09-altix/g09/l502.exe)
 UHF open shell SCF:
 Using DIIS extrapolation, IDIIS=  1040.
 Integral symmetry usage will be decided dynamically.
 Keep R1 and R2 ints in memory in symmetry-blocked form, NReq=994454.
 IVT=        9329 IEndB=        9329 NGot=   536870912 MDV=   536790415
 LenX=   536790415 LenY=   536789013
 Requested convergence on RMS density matrix=1.00D-08 within  64 cycles.
 Requested convergence on MAX density matrix=1.00D-06.
 Requested convergence on             energy=1.00D-06.
 No special actions if energy rises.
 FoFCou: FMM=F IPFlag=           0 FMFlag=           0 FMFlg1=           0
         NFxFlg=           0 DoJE=F BraDBF=F KetDBF=F FulRan=T
         wScrn=  0.000000 ICntrl=     600 IOpCl=  0 I1Cent=           0 NGrid=           0
         NMat0=    1 NMatS0=    496 NMatT0=    0 NMatD0=    1 NMtDS0=    0 NMtDT0=    0
 Petite list used in FoFCou.

 Cycle   1  Pass 1  IDiag  1:
 E= -75.9355827302614    
 DIIS: error= 1.73D-09 at cycle   1 NSaved=   1.
 NSaved= 1 IEnMin= 1 EnMin= -75.9355827302614     IErMin= 1 ErrMin= 1.73D-09
 ErrMax= 1.73D-09  0.00D+00 EMaxC= 1.00D-01 BMatC= 1.24D-16 BMatP= 1.24D-16
 IDIUse=1 WtCom= 1.00D+00 WtEn= 0.00D+00
 Coeff-Com:  0.100D+01
 Coeff:      0.100D+01
 Gap=     0.711 Goal=   None    Shift=    0.000
 Gap=     0.409 Goal=   None    Shift=    0.000
 RMSDP=2.19D-10 MaxDP=3.77D-09              OVMax= 4.07D-09

 SCF Done:  E(UBHandHLYP) =  -75.9355827303     A.U. after    1 cycles
            NFock=  1  Conv=0.22D-09     -V/T= 2.0061
 <Sx>= 0.0000 <Sy>= 0.0000 <Sz>= 0.5000 <S**2>= 0.7532 S= 0.5016
 <L.S>= 0.000000000000E+00
 KE= 7.547817146150D+01 PE=-1.934879227215D+02 EE= 3.292428093544D+01
 Annihilation of the first spin contaminant:
 S**2 before annihilation     0.7532,   after     0.7500
 Leave Link  502 at Tue Oct 23 11:00:56 2018, MaxMem=   536870912 cpu:         0.1
 (Enter /home/slavicek/G03/g09-altix/g09/l508.exe)
 QCSCF skips out because SCF is already converged.
 Leave Link  508 at Tue Oct 23 11:00:56 2018, MaxMem=   536870912 cpu:         0.0
 (Enter /home/slavicek/G03/g09-altix/g09/l801.exe)
 DoSCS=F DFT=T ScalE2(SS,OS)=  1.000000  1.000000
 ExpMin= 3.60D-02 ExpMax= 5.48D+03 ExpMxC= 8.25D+02 IAcc=3 IRadAn=         5 AccDes= 0.00D+00
 HarFok:  IExCor=  205 AccDes= 0.00D+00 IRadAn=         5 IDoV=-2 UseB2=F ITyADJ=14
 ICtDFT= 12500011 ScaDFX=  1.000000  1.000000  1.000000  1.000000
 Largest valence mixing into a core orbital is  2.59D-05
 Largest core mixing into a valence orbital is  3.75D-06
 Largest valence mixing into a core orbital is  4.19D-05
 Largest core mixing into a valence orbital is  9.20D-06
 Range of M.O.s used for correlation:     2    31
 NBasis=    31 NAE=     5 NBE=     4 NFC=     1 NFV=     0
 NROrb=     30 NOA=     4 NOB=     3 NVA=    26 NVB=    27
 Leave Link  801 at Tue Oct 23 11:00:56 2018, MaxMem=   536870912 cpu:         0.1
 (Enter /home/slavicek/G03/g09-altix/g09/l914.exe)
 UHF ground state
 MDV=   536870912 DFT=T DoStab=F Mixed=T DoRPA=T DoScal=F NonHer=T
 Keep R1, R2, and R3 ints in memory in symmetry-blocked form, NReq=1053458.
 FoFCou: FMM=F IPFlag=           0 FMFlag=           0 FMFlg1=           0
         NFxFlg=           0 DoJE=F BraDBF=F KetDBF=F FulRan=T
         wScrn=  0.000000 ICntrl=     600 IOpCl=  0 I1Cent=           0 NGrid=           0
         NMat0=    1 NMatS0=    496 NMatT0=    0 NMatD0=    1 NMtDS0=    0 NMtDT0=    0
 Petite list used in FoFCou.
 Making orbital integer symmetry assigments:
 Orbital symmetries:
 Alpha Orbitals:
       Occupied  (A1) (A1) (B2) (B1) (A1)
       Virtual   (A1) (B2) (B1) (A1) (B2) (A1) (B2) (A1) (B2) (A1)
                 (B1) (A1) (B2) (A1) (A2) (A1) (B1) (A1) (B2) (B2)
                 (A2) (B1) (A1) (A1) (B2) (A1)
 Beta  Orbitals:
       Occupied  (A1) (A1) (B2) (A1)
       Virtual   (B1) (A1) (B2) (A1) (B1) (B2) (A1) (B2) (A1) (B2)
                 (A1) (A1) (B1) (B2) (A1) (A2) (A1) (B1) (A1) (B2)
                 (B2) (A2) (B1) (A1) (A1) (B2) (A1)
     8 initial guesses have been made.
 Convergence on wavefunction:    0.000010000000000
 Davidson Disk Diagonalization:  ConvIn= 1.00D-05 SkipCon=T Conv= 1.00D-05.
 Max sub-space:   200 roots to seek:     8 dimension of matrix:          185
 Iteration     1 Dimension     8 NMult     0 NNew      8
 CISAX will form     8 AO SS matrices at one time.
 NMat=     8 NSing=     8 JSym2X=-1.
 Excitation Energies [eV] at current iteration:
 Root      1 :     2.751785819726177
 Root      2 :     6.763628265252732
 Root      3 :    14.276345036696070
 Root      4 :    15.293749692912960
 Root      5 :    15.410801483192910
 Root      6 :    16.458436856794330
 Root      7 :    17.564733990893420
 Root      8 :    17.597865110696220
 Iteration     2 Dimension    12 NMult     8 NNew      4
 CISAX will form     4 AO SS matrices at one time.
 NMat=     4 NSing=     4 JSym2X=-1.
 Root      1 not converged, maximum delta is    0.107207355527978
 Root      2 not converged, maximum delta is    0.098815395077159
 Excitation Energies [eV] at current iteration:
 Root      1 :     2.343803969387229   Change is   -0.407981850338948
 Root      2 :     6.452715168289500   Change is   -0.310913096963232
 Iteration     3 Dimension    16 NMult    12 NNew      4
 CISAX will form     4 AO SS matrices at one time.
 NMat=     4 NSing=     4 JSym2X=-1.
 Root      1 not converged, maximum delta is    0.009939333375395
 Root      2 not converged, maximum delta is    0.002254982928496
 Excitation Energies [eV] at current iteration:
 Root      1 :     2.337292551471433   Change is   -0.006511417915796
 Root      2 :     6.451813986665352   Change is   -0.000901181624149
 Iteration     4 Dimension    20 NMult    16 NNew      4
 CISAX will form     4 AO SS matrices at one time.
 NMat=     4 NSing=     4 JSym2X=-1.
 Root      1 not converged, maximum delta is    0.001481856765867
 Root      2 not converged, maximum delta is    0.000126275881217
 Excitation Energies [eV] at current iteration:
 Root      1 :     2.337197536037722   Change is   -0.000095015433711
 Root      2 :     6.451807140132181   Change is   -0.000006846533170
 Iteration     5 Dimension    24 NMult    20 NNew      4
 CISAX will form     4 AO SS matrices at one time.
 NMat=     4 NSing=     4 JSym2X=-1.
 Root      1 not converged, maximum delta is    0.000178890054554
 Root      2 not converged, maximum delta is    0.000018412661219
 Excitation Energies [eV] at current iteration:
 Root      1 :     2.337195950963385   Change is   -0.000001585074337
 Root      2 :     6.451807109188959   Change is   -0.000000030943222
 Iteration     6 Dimension    28 NMult    24 NNew      4
 CISAX will form     4 AO SS matrices at one time.
 NMat=     4 NSing=     4 JSym2X=-1.
 Root      1 not converged, maximum delta is    0.000011017524245
 Root      2 has converged.
 Excitation Energies [eV] at current iteration:
 Root      1 :     2.337195939075987   Change is   -0.000000011887398
 Root      2 :     6.451807108761396   Change is   -0.000000000427563
 Iteration     7 Dimension    30 NMult    28 NNew      2
 CISAX will form     2 AO SS matrices at one time.
 NMat=     2 NSing=     2 JSym2X=-1.
 Root      1 has converged.
 Root      2 has converged.
 Excitation Energies [eV] at current iteration:
 Root      1 :     2.337195939042044   Change is   -0.000000000033942
 Root      2 :     6.451807108761320   Change is   -0.000000000000076
 Convergence achieved on expansion vectors.
 ***********************************************************************
 Excited states from <AA,BB:AA,BB> singles matrix:
 ***********************************************************************
 
 ExtSpn:  IState=     1 X2= 1.002 Y2= 0.002 X2-Y2-1= 0.00D+00
          S2Grnd=  0.753 Ra=  0.000 Rb=  0.003 T= -0.003 S2Ext=  0.001 S2=  0.754
 ExtSpn:  IState=     2 X2= 1.001 Y2= 0.001 X2-Y2-1= 0.00D+00
          S2Grnd=  0.753 Ra=  0.000 Rb=  0.004 T= -0.002 S2Ext=  0.002 S2=  0.755
 1PDM for each excited state written to RWF  633
 Ground to excited state transition densities written to RWF  633
 Ground to excited state transition electric dipole moments (Au):
       state          X           Y           Z        Dip. S.      Osc.
         1        -0.1383      0.0000      0.0000      0.0191      0.0011
         2         0.0000      0.0000      0.0000      0.0000      0.0000
 Ground to excited state transition velocity dipole moments (Au):
       state          X           Y           Z        Dip. S.      Osc.
         1         0.0303      0.0000      0.0000      0.0009      0.0071
         2         0.0000      0.0000      0.0000      0.0000      0.0000
 Ground to excited state transition magnetic dipole moments (Au):
       state          X           Y           Z
         1         0.0000      0.9466      0.0000
         2         0.0000      0.0000     -0.9699
 Ground to excited state transition velocity quadrupole moments (Au):
       state          XX          YY          ZZ          XY          XZ          YZ
         1         0.0000      0.0000      0.0000      0.0000      0.0326      0.0000
         2         0.0000      0.0000      0.0000      0.0801      0.0000      0.0000
 <0|del|b> * <b|rxdel|0> + <0|del|b> * <b|delr+rdel|0>
 Rotatory Strengths (R) in cgs (10**-40 erg-esu-cm/Gauss)
       state          XX          YY          ZZ    R(velocity)    E-M Angle
         1         0.0000      0.0000      0.0000      0.0000       90.00
         2         0.0000      0.0000      0.0000      0.0000       90.00
 1/2[<0|r|b>*<b|rxdel|0> + (<0|rxdel|b>*<b|r|0>)*]
 Rotatory Strengths (R) in cgs (10**-40 erg-esu-cm/Gauss)
       state          XX          YY          ZZ     R(length)
         1         0.0000      0.0000      0.0000      0.0000
         2         0.0000      0.0000      0.0000      0.0000
  1/2[<0|del|b>*<b|r|0> + (<0|r|b>*<b|del|0>)*] (Au)
       state          X           Y           Z        Dip. S.   Osc.(frdel)
         1        -0.0042      0.0000      0.0000      0.0042      0.0028
         2         0.0000      0.0000      0.0000      0.0000      0.0000

 Excitation energies and oscillator strengths:
 
 Excited State   1:  2.004-B1     2.3372 eV  530.48 nm  f=0.0011  <S**2>=0.754
      4B ->  5B        0.99327
      4B ->  9B       -0.10192
 
 Excited State   2:  2.005-A2     6.4518 eV  192.17 nm  f=0.0000  <S**2>=0.755
      3B ->  5B        0.99349
 This state for optimization and/or second-order correction.
 Total Energy, E(TD-HF/TD-KS) =  -75.6984831714    
 Copying the excited state density for this state as the 1-particle RhoCI density.
 SavETr:  write IOETrn=   770 NScale= 10 NData=  16 NLR=1 NState=    2 LETran=      46.
 The state does not have a specific multiplicity.
 CISAX will form     1 AO SS matrices at one time.
 NMat=     1 NSing=     1 JSym2X=-1.
 CISAX will form     1 AO SS matrices at one time.
 NMat=     1 NSing=     1 JSym2X=-1.
 Leave Link  914 at Tue Oct 23 11:00:57 2018, MaxMem=   536870912 cpu:         1.7
 (Enter /home/slavicek/G03/g09-altix/g09/l1002.exe)
 Minotr:  UHF open shell wavefunction.
          Computing CIS/TD-HF/TD-KS derivatives.
          Using Z-Vector for PSCF gradient.
          Skipping F1 and S1 gradient terms here.
          IDoAtm=111
          Frozen-core window.
          Direct CPHF calculation.
          Differentiating once with respect to electric field.
                with respect to dipole field.
          Differentiating once with respect to nuclear coordinates.
          Requested convergence is 1.0D-10 RMS, and 1.0D-09 maximum.
          NewPWx=F KeepS1=T KeepF1=T KeepIn=T MapXYZ=F SortEE=F KeepMc=T.
          MDV=     536870818 using IRadAn=       0.
 Using stored XC quadrature information.
 Keep R1 and R2 ints in memory in symmetry-blocked form, NReq=985946.
 FoFCou: FMM=F IPFlag=           0 FMFlag=           0 FMFlg1=           0
         NFxFlg=           0 DoJE=F BraDBF=F KetDBF=F FulRan=T
         wScrn=  0.000000 ICntrl=     600 IOpCl=  0 I1Cent=           0 NGrid=           0
         NMat0=    1 NMatS0=    496 NMatT0=    0 NMatD0=    1 NMtDS0=    0 NMtDT0=    0
 Petite list used in FoFCou.
          Solving linear equations separately, MaxMat=       0.
          There are     1 degrees of freedom in the 1st order CPHF.  IDoFFX=0 NUNeed=     1.
 LinEq1:  Iter=  0 NonCon=     1 RMS=1.14D-02 Max=6.17D-02 NDo=     1
 AX will form     1 AO Fock derivatives at one time.
 LinEq1:  Iter=  1 NonCon=     1 RMS=5.59D-03 Max=3.50D-02 NDo=     1
 LinEq1:  Iter=  2 NonCon=     1 RMS=1.34D-03 Max=6.33D-03 NDo=     1
 LinEq1:  Iter=  3 NonCon=     1 RMS=3.21D-04 Max=1.63D-03 NDo=     1
 LinEq1:  Iter=  4 NonCon=     1 RMS=4.17D-05 Max=1.75D-04 NDo=     1
 LinEq1:  Iter=  5 NonCon=     1 RMS=3.70D-06 Max=1.75D-05 NDo=     1
 LinEq1:  Iter=  6 NonCon=     1 RMS=2.38D-07 Max=1.53D-06 NDo=     1
 LinEq1:  Iter=  7 NonCon=     1 RMS=1.87D-08 Max=1.03D-07 NDo=     1
 LinEq1:  Iter=  8 NonCon=     1 RMS=1.97D-09 Max=1.11D-08 NDo=     1
 LinEq1:  Iter=  9 NonCon=     1 RMS=1.34D-10 Max=6.42D-10 NDo=     1
 LinEq1:  Iter= 10 NonCon=     0 RMS=1.14D-11 Max=6.28D-11 NDo=     1
 Linear equations converged to 1.000D-10 1.000D-09 after    10 iterations.
 End of Minotr F.D. properties file   721 does not exist.
 End of Minotr F.D. properties file   722 does not exist.
 End of Minotr F.D. properties file   788 does not exist.
 Leave Link 1002 at Tue Oct 23 11:00:58 2018, MaxMem=   536870912 cpu:         0.7
 (Enter /home/slavicek/G03/g09-altix/g09/l601.exe)
 Copying SCF densities to generalized density rwf, IOpCl= 1 IROHF=0.

 **********************************************************************

            Population analysis using the SCF density.

 **********************************************************************

 Orbital symmetries:
 Alpha Orbitals:
       Occupied  (A1) (A1) (B2) (B1) (A1)
       Virtual   (A1) (B2) (B1) (A1) (B2) (A1) (B2) (A1) (B2) (A1)
                 (B1) (A1) (B2) (A1) (A2) (A1) (B1) (A1) (B2) (B2)
                 (A2) (B1) (A1) (A1) (B2) (A1)
 Beta  Orbitals:
       Occupied  (A1) (A1) (B2) (A1)
       Virtual   (B1) (A1) (B2) (A1) (B1) (B2) (A1) (B2) (A1) (B2)
                 (A1) (A1) (B1) (B2) (A1) (A2) (A1) (B1) (A1) (B2)
                 (B2) (A2) (B1) (A1) (A1) (B2) (A1)
 The electronic state is 2-B1.
 Alpha  occ. eigenvalues --  -20.27355  -1.68691  -1.09455  -0.98102  -0.96554
 Alpha virt. eigenvalues --   -0.25460  -0.17320  -0.08022  -0.07055  -0.04587
 Alpha virt. eigenvalues --   -0.04138   0.02261   0.03713   0.62417   0.70600
 Alpha virt. eigenvalues --    0.75407   0.82419   0.86617   1.05301   1.13121
 Alpha virt. eigenvalues --    1.18335   1.24444   1.89136   1.96533   2.20425
 Alpha virt. eigenvalues --    2.29929   2.34153   2.72909   3.05510   3.27946
 Alpha virt. eigenvalues --    3.71294
  Beta  occ. eigenvalues --  -20.24169  -1.58909  -1.06915  -0.92912
  Beta virt. eigenvalues --   -0.51986  -0.24657  -0.16875  -0.06780  -0.05353
  Beta virt. eigenvalues --   -0.04512  -0.03542   0.02391   0.04246   0.62636
  Beta virt. eigenvalues --    0.71846   0.83963   0.85640   0.87463   1.06965
  Beta virt. eigenvalues --    1.18242   1.21303   1.30184   1.94605   1.96056
  Beta virt. eigenvalues --    2.21071   2.32579   2.36163   2.73196   3.06746
  Beta virt. eigenvalues --    3.28635   3.74075
          Condensed to atoms (all electrons):
               1          2          3
     1  O    7.378050   0.285997   0.285997
     2  H    0.285997   0.259655  -0.020674
     3  H    0.285997  -0.020674   0.259655
          Atomic-Atomic Spin Densities.
               1          2          3
     1  O    1.072958  -0.008186  -0.008186
     2  H   -0.008186  -0.021556   0.001449
     3  H   -0.008186   0.001449  -0.021556
 Mulliken charges and spin densities:
               1          2
     1  O    0.049957   1.056586
     2  H    0.475022  -0.028293
     3  H    0.475022  -0.028293
 Sum of Mulliken charges =   1.00000   1.00000
 Mulliken charges and spin densities with hydrogens summed into heavy atoms:
               1          2
     1  O    1.000000   1.000000
 Electronic spatial extent (au):  <R**2>=             14.3960
 Charge=              1.0000 electrons
 Dipole moment (field-independent basis, Debye):
    X=              0.0000    Y=              0.0000    Z=             -2.3438  Tot=              2.3438
 Quadrupole moment (field-independent basis, Debye-Ang):
   XX=             -4.7319   YY=             -2.1238   ZZ=             -4.2896
   XY=              0.0000   XZ=              0.0000   YZ=              0.0000
 Traceless Quadrupole moment (field-independent basis, Debye-Ang):
   XX=             -1.0168   YY=              1.5913   ZZ=             -0.5745
   XY=              0.0000   XZ=              0.0000   YZ=              0.0000
 Octapole moment (field-independent basis, Debye-Ang**2):
  XXX=              0.0000  YYY=              0.0000  ZZZ=             -1.6334  XYY=              0.0000
  XXY=              0.0000  XXZ=             -0.2665  XZZ=              0.0000  YZZ=              0.0000
  YYZ=             -1.8501  XYZ=              0.0000
 Hexadecapole moment (field-independent basis, Debye-Ang**3):
 XXXX=             -2.7083 YYYY=             -2.8010 ZZZZ=             -4.3655 XXXY=              0.0000
 XXXZ=              0.0000 YYYX=              0.0000 YYYZ=              0.0000 ZZZX=              0.0000
 ZZZY=              0.0000 XXYY=             -1.2710 XXZZ=             -1.2302 YYZZ=             -0.7431
 XXYZ=              0.0000 YYXZ=              0.0000 ZZXY=              0.0000
 N-N= 9.149887594256D+00 E-N=-1.934879227289D+02  KE= 7.547817146150D+01
 Symmetry A1   KE= 6.864071827564D+01
 Symmetry A2   KE= 3.287914192618D-35
 Symmetry B1   KE= 2.708857722875D+00
 Symmetry B2   KE= 4.128595462991D+00
                          Isotropic Fermi Contact Couplings
        Atom                 a.u.       MegaHertz       Gauss      10(-4) cm-1
     1  O(17)             -0.05585      33.85628      12.08076      11.29324
     2  H(1)               0.13419     599.80428     214.02508     200.07317
     3  H(1)               0.13419     599.80428     214.02508     200.07317
 --------------------------------------------------------
       Center         ----  Spin Dipole Couplings  ----
                      3XX-RR        3YY-RR        3ZZ-RR
 --------------------------------------------------------
     1   Atom       -1.097864      2.539752     -1.441888
     2   Atom       -0.143681      0.030178      0.113502
     3   Atom       -0.143681      0.030178      0.113502
 --------------------------------------------------------
                        XY            XZ            YZ
 --------------------------------------------------------
     1   Atom        0.000000      0.000000      0.000000
     2   Atom        0.000000      0.000000      0.213503
     3   Atom        0.000000      0.000000     -0.213503
 --------------------------------------------------------


 ---------------------------------------------------------------------------------
              Anisotropic Spin Dipole Couplings in Principal Axis System
 ---------------------------------------------------------------------------------

       Atom             a.u.   MegaHertz   Gauss  10(-4) cm-1        Axes

              Baa    -1.4419   104.334    37.229    34.802  0.0000  0.0000  1.0000
     1 O(17)  Bbb    -1.0979    79.441    28.346    26.499  1.0000  0.0000  0.0000
              Bcc     2.5398  -183.775   -65.575   -61.301  0.0000  1.0000  0.0000
 
              Baa    -0.1457   -77.733   -27.737   -25.929  0.0000  0.7719 -0.6358
     2 H(1)   Bbb    -0.1437   -76.661   -27.355   -25.571  1.0000  0.0000  0.0000
              Bcc     0.2894   154.394    55.092    51.500  0.0000  0.6358  0.7719
 
              Baa    -0.1457   -77.733   -27.737   -25.929  0.0000  0.7719  0.6358
     3 H(1)   Bbb    -0.1437   -76.661   -27.355   -25.571  1.0000  0.0000  0.0000
              Bcc     0.2894   154.394    55.092    51.500  0.0000 -0.6358  0.7719
 

 ---------------------------------------------------------------------------------

 No NMR shielding tensors so no spin-rotation constants.
 Leave Link  601 at Tue Oct 23 11:00:58 2018, MaxMem=   536870912 cpu:         0.2
 (Enter /home/slavicek/G03/g09-altix/g09/l701.exe)
 Compute integral first derivatives.
 ... and contract with generalized density number  6.
 Leave Link  701 at Tue Oct 23 11:00:58 2018, MaxMem=   536870912 cpu:         0.1
 (Enter /home/slavicek/G03/g09-altix/g09/l702.exe)
 L702 exits ... SP integral derivatives will be done elsewhere.
 Leave Link  702 at Tue Oct 23 11:00:58 2018, MaxMem=   536870912 cpu:         0.0
 (Enter /home/slavicek/G03/g09-altix/g09/l703.exe)
 Compute integral first derivatives, UseDBF=F ICtDFT=           0.
 Integral derivatives from FoFJK, PRISM(SPDF).
 Calling FoFJK, ICntrl=  10005127 FMM=F ISym2X=1 I1Cent= 0 IOpClX= 1 NMat=1 NMatS=1 NMatT=0.
 FoFJK:  IHMeth= 1 ICntrl=10005127 DoSepK=F KAlg= 0 I1Cent=   0 FoldK=F
 IRaf=         0 NMat=   1 IRICut=       1 DoRegI=T DoRafI=F ISym2E= 1.
 FoFCou: FMM=F IPFlag=           0 FMFlag=      100000 FMFlg1=         800
         NFxFlg=           0 DoJE=F BraDBF=F KetDBF=F FulRan=T
         wScrn=  0.000000 ICntrl=10005127 IOpCl=  1 I1Cent=           0 NGrid=           0
         NMat0=    1 NMatS0=      1 NMatT0=    0 NMatD0=    1 NMtDS0=    0 NMtDT0=    0
 Petite list used in FoFCou.
 Leave Link  703 at Tue Oct 23 11:00:59 2018, MaxMem=   536870912 cpu:         0.2
 (Enter /home/slavicek/G03/g09-altix/g09/l716.exe)
 Dipole        = 8.71834929D-17 0.00000000D+00-1.12539236D+00
 ***** Axes restored to original set *****
 -------------------------------------------------------------------
 Center     Atomic                   Forces (Hartrees/Bohr)
 Number     Number              X              Y              Z
 -------------------------------------------------------------------
      1        8          -0.182867758    0.000000000   -0.142872009
      2        1           0.055662614    0.000000000    0.117221117
      3        1           0.127205144    0.000000000    0.025650892
 -------------------------------------------------------------------
 Cartesian Forces:  Max     0.182867758 RMS     0.098618942
 Z-matrix is all fixed cartesians, so copy forces.
 Force constants in Cartesian coordinates: 
                1             2             3             4             5 
      1  0.592767D+00
      2  0.000000D+00  0.100000D+01
      3 -0.714162D-01  0.000000D+00  0.628379D+00
      4 -0.601508D-01  0.000000D+00 -0.466710D-01  0.484115D-01
      5  0.000000D+00  0.000000D+00  0.000000D+00  0.000000D+00  0.100000D+01
      6  0.288511D-03  0.000000D+00 -0.550422D+00 -0.295419D-03  0.000000D+00
      7 -0.532616D+00  0.000000D+00  0.118087D+00  0.117394D-01  0.000000D+00
      8  0.000000D+00  0.000000D+00  0.000000D+00  0.000000D+00  0.000000D+00
      9  0.711277D-01  0.000000D+00 -0.779569D-01  0.469664D-01  0.000000D+00
                6             7             8             9 
      6  0.550394D+00
      7  0.690867D-05  0.520877D+00
      8  0.000000D+00  0.000000D+00  0.100000D+01
      9  0.276399D-04 -0.118094D+00  0.000000D+00  0.779292D-01
 Leave Link  716 at Tue Oct 23 11:00:59 2018, MaxMem=   536870912 cpu:         0.0
 (Enter /home/slavicek/G03/g09-altix/g09/l103.exe)

 GradGradGradGradGradGradGradGradGradGradGradGradGradGradGradGradGradGrad
 Berny optimization.
 Search for a local minimum.
 Step number   1 out of a maximum of    2
 All quantities printed in internal units (Hartrees-Bohrs-Radians)
 Second derivative matrix not updated -- first step.
 The second derivative matrix:
                          X1        Y1        Z1        X2        Y2
           X1           0.59277
           Y1           0.00000   1.00000
           Z1          -0.07142   0.00000   0.62838
           X2          -0.06015   0.00000  -0.04667   0.04841
           Y2           0.00000   0.00000   0.00000   0.00000   1.00000
           Z2           0.00029   0.00000  -0.55042  -0.00030   0.00000
           X3          -0.53262   0.00000   0.11809   0.01174   0.00000
           Y3           0.00000   0.00000   0.00000   0.00000   0.00000
           Z3           0.07113   0.00000  -0.07796   0.04697   0.00000
                          Z2        X3        Y3        Z3
           Z2           0.55039
           X3           0.00001   0.52088
           Y3           0.00000   0.00000   1.00000
           Z3           0.00003  -0.11809   0.00000   0.07793
 ITU=  0
     Eigenvalues ---    0.14442   0.86025   0.98711
 Quadratic step=6.023D-01 exceeds max=3.000D-01 adjusted using Lamda=-2.440D-01.
 Angle between NR and scaled steps=  20.30 degrees.
 Angle between quadratic step and forces=  35.36 degrees.
 ClnCor:  largest displacement from symmetrization is 1.37D-15 for atom     3.
 Linear search not attempted -- first point.
 ClnCor:  largest displacement from symmetrization is 3.55D-16 for atom     3.
 TrRot= -0.064314  0.000000 -0.050247  0.000000  0.000000  0.000000
 Variable       Old X    -DE/DX   Delta X   Delta X   Delta X     New X
                                 (Linear)    (Quad)   (Total)
    X1       -0.09862  -0.18287   0.00000  -0.10552  -0.16984  -0.26846
    Y1        0.00000   0.00000   0.00000   0.00000   0.00000   0.00000
    Z1       -0.07705  -0.14287   0.00000  -0.08244  -0.13269  -0.20974
    X2       -0.09969   0.05566   0.00000   0.16210   0.09779  -0.00190
    Y2        0.00000   0.00000   0.00000   0.00000   0.00000   0.00000
    Z2        1.74092   0.11722   0.00000   0.10012   0.04987   1.79079
    X3        1.66509   0.12721   0.00000   0.13636   0.07205   1.73714
    Y3        0.00000   0.00000   0.00000   0.00000   0.00000   0.00000
    Z3       -0.51789   0.02565   0.00000   0.13306   0.08282  -0.43508
         Item               Value     Threshold  Converged?
 Maximum Force            0.182868     0.000450     NO 
 RMS     Force            0.098619     0.000300     NO 
 Maximum Displacement     0.169836     0.001800     NO 
 RMS     Displacement     0.088538     0.001200     NO 
 Predicted change in Energy=-4.734095D-02
 GradGradGradGradGradGradGradGradGradGradGradGradGradGradGradGradGradGrad

 Leave Link  103 at Tue Oct 23 11:00:59 2018, MaxMem=   536870912 cpu:         0.0
 (Enter /home/slavicek/G03/g09-altix/g09/l9999.exe)
 1\1\GINC-403-AS67-01\Force\UBHandHLYP TD-FC\6-31++G(d,p)\H2O1(1+,2)\CH
 ALABAJ\23-Oct-2018\0\\#P BHandHLYP/6-31++g** SCF=XQC FORCE TD=(nstates
 =2,root=2,conver=5) Geom=Check Guess=Read\\comment\\1,2\O,-0.052187652
 4,0.,-0.040773495\H,-0.0527538099,0.,0.9212544292\H,0.8811270564,0.,-0
 .2740580894\\Version=ES64L-G09RevD.01\State=2-B1\HF=-75.9355827\S2=0.7
 53189\S2-1=0.\S2A=0.750006\RMSD=2.188e-10\RMSF=9.862e-02\Dipole=0.8868
 211,0.,0.6928609\PG=C02V [C2(O1),SGV(H2)]\\@


 GARLIC THEN HAVE POWER TO SAVE FROM DEATH
 BEAR WITH IT THOUGH IT MAKETH UNSAVORY BREATH,
 AND SCORN NOT GARLIC LIKE SOME THAT THINK
 IT ONLY MAKETH MEN WINK AND DRINK AND STINK.
   --  SIR JOHN HARRINGTON,
       "THE ENGLISHMAN'S DOCTOR", 1609
 Job cpu time:       0 days  0 hours  0 minutes  3.7 seconds.
 File lengths (MBytes):  RWF=      5 Int=      0 D2E=      0 Chk=      1 Scr=      1
 Normal termination of Gaussian 09 at Tue Oct 23 11:00:59 2018.
