 Entering Gaussian System, Link 0=/home/slavicek/G03/g09-altix/g09//g09
 Input=input.com
 Output=input.log
 Initial command:
 /home/slavicek/G03/g09-altix/g09/l1.exe "/home/chalabaj/snafu/ABINITIO/scratch/Gau-2267.inp" -scrdir="/home/chalabaj/snafu/ABINITIO/scratch/"
 Entering Link 1 = /home/slavicek/G03/g09-altix/g09/l1.exe PID=      2269.
  
 Copyright (c) 1988,1990,1992,1993,1995,1998,2003,2009,2013,
            Gaussian, Inc.  All Rights Reserved.
  
 This is part of the Gaussian(R) 09 program.  It is based on
 the Gaussian(R) 03 system (copyright 2003, Gaussian, Inc.),
 the Gaussian(R) 98 system (copyright 1998, Gaussian, Inc.),
 the Gaussian(R) 94 system (copyright 1995, Gaussian, Inc.),
 the Gaussian 92(TM) system (copyright 1992, Gaussian, Inc.),
 the Gaussian 90(TM) system (copyright 1990, Gaussian, Inc.),
 the Gaussian 88(TM) system (copyright 1988, Gaussian, Inc.),
 the Gaussian 86(TM) system (copyright 1986, Carnegie Mellon
 University), and the Gaussian 82(TM) system (copyright 1983,
 Carnegie Mellon University). Gaussian is a federally registered
 trademark of Gaussian, Inc.
  
 This software contains proprietary and confidential information,
 including trade secrets, belonging to Gaussian, Inc.
  
 This software is provided under written license and may be
 used, copied, transmitted, or stored only in accord with that
 written license.
  
 The following legend is applicable only to US Government
 contracts under FAR:
  
                    RESTRICTED RIGHTS LEGEND
  
 Use, reproduction and disclosure by the US Government is
 subject to restrictions as set forth in subparagraphs (a)
 and (c) of the Commercial Computer Software - Restricted
 Rights clause in FAR 52.227-19.
  
 Gaussian, Inc.
 340 Quinnipiac St., Bldg. 40, Wallingford CT 06492
  
  
 ---------------------------------------------------------------
 Warning -- This program may not be used in any manner that
 competes with the business of Gaussian, Inc. or will provide
 assistance to any competitor of Gaussian, Inc.  The licensee
 of this program is prohibited from giving any competitor of
 Gaussian, Inc. access to this program.  By using this program,
 the user acknowledges that Gaussian, Inc. is engaged in the
 business of creating and licensing software in the field of
 computational chemistry and represents and warrants to the
 licensee that it is not a competitor of Gaussian, Inc. and that
 it will not use this program in any manner prohibited above.
 ---------------------------------------------------------------
  

 Cite this work as:
 Gaussian 09, Revision D.01,
 M. J. Frisch, G. W. Trucks, H. B. Schlegel, G. E. Scuseria, 
 M. A. Robb, J. R. Cheeseman, G. Scalmani, V. Barone, B. Mennucci, 
 G. A. Petersson, H. Nakatsuji, M. Caricato, X. Li, H. P. Hratchian, 
 A. F. Izmaylov, J. Bloino, G. Zheng, J. L. Sonnenberg, M. Hada, 
 M. Ehara, K. Toyota, R. Fukuda, J. Hasegawa, M. Ishida, T. Nakajima, 
 Y. Honda, O. Kitao, H. Nakai, T. Vreven, J. A. Montgomery, Jr., 
 J. E. Peralta, F. Ogliaro, M. Bearpark, J. J. Heyd, E. Brothers, 
 K. N. Kudin, V. N. Staroverov, T. Keith, R. Kobayashi, J. Normand, 
 K. Raghavachari, A. Rendell, J. C. Burant, S. S. Iyengar, J. Tomasi, 
 M. Cossi, N. Rega, J. M. Millam, M. Klene, J. E. Knox, J. B. Cross, 
 V. Bakken, C. Adamo, J. Jaramillo, R. Gomperts, R. E. Stratmann, 
 O. Yazyev, A. J. Austin, R. Cammi, C. Pomelli, J. W. Ochterski, 
 R. L. Martin, K. Morokuma, V. G. Zakrzewski, G. A. Voth, 
 P. Salvador, J. J. Dannenberg, S. Dapprich, A. D. Daniels, 
 O. Farkas, J. B. Foresman, J. V. Ortiz, J. Cioslowski, 
 and D. J. Fox, Gaussian, Inc., Wallingford CT, 2013.
 
 ******************************************
 Gaussian 09:  ES64L-G09RevD.01 24-Apr-2013
                19-Jul-2018 
 ******************************************
 %chk=/home/chalabaj/snafu/ABINITIO/checkpoint.chk
 %Mem=500Mb
 %Nproc=2
 Will use up to    2 processors via shared memory.
 --------------------------------------
 #BLYP/6-31g* Force guess=(Read,TCheck)
 --------------------------------------
 1/10=7,30=1,38=1/1,3;
 2/12=2,17=6,18=5,40=1/2;
 3/5=1,6=6,7=1,11=2,16=1,25=1,30=1,71=1,74=402/1,2,3;
 4/5=102/1;
 5/5=2/2;
 6/7=2,8=2,9=2,10=2,28=1/1;
 7/29=1/1,2,3,16;
 1/10=7,30=1/3;
 99//99;
 -------
 comment
 -------
 Symbolic Z-matrix:
 Charge =  0 Multiplicity = 1
 O                    -0.00036   0.       -0.00028 
 H                    -0.00066   0.        0.9657 
 H                     0.93685   0.       -0.23427 
 

 GradGradGradGradGradGradGradGradGradGradGradGradGradGradGradGradGradGrad
 Berny optimization.
 Initialization pass.
 Trust Radius=3.00D-01 FncErr=1.00D-07 GrdErr=1.00D-07
 Number of steps in this run=      2 maximum allowed number of steps=      2.
 GradGradGradGradGradGradGradGradGradGradGradGradGradGradGradGradGradGrad

                          Input orientation:                          
 ---------------------------------------------------------------------
 Center     Atomic      Atomic             Coordinates (Angstroms)
 Number     Number       Type             X           Y           Z
 ---------------------------------------------------------------------
      1          8           0       -0.000356    0.000000   -0.000278
      2          1           0       -0.000664    0.000000    0.965696
      3          1           0        0.936850    0.000000   -0.234268
 ---------------------------------------------------------------------
                    Distance matrix (angstroms):
                    1          2          3
     1  O    0.000000
     2  H    0.965974   0.000000
     3  H    0.965974   1.522776   0.000000
 Stoichiometry    H2O
 Framework group  C2V[C2(O),SGV(H2)]
 Deg. of freedom     2
 Full point group                 C2V     NOp   4
 Largest Abelian subgroup         C2V     NOp   4
 Largest concise Abelian subgroup C2      NOp   2
                         Standard orientation:                         
 ---------------------------------------------------------------------
 Center     Atomic      Atomic             Coordinates (Angstroms)
 Number     Number       Type             X           Y           Z
 ---------------------------------------------------------------------
      1          8           0        0.000000    0.000000    0.118894
      2          1           0        0.000000   -0.761388   -0.475576
      3          1           0        0.000000    0.761388   -0.475576
 ---------------------------------------------------------------------
 Rotational constants (GHZ):    798.8898816    432.5042640    280.5951949
 Standard basis: 6-31G(d) (6D, 7F)
 There are    10 symmetry adapted cartesian basis functions of A1  symmetry.
 There are     1 symmetry adapted cartesian basis functions of A2  symmetry.
 There are     3 symmetry adapted cartesian basis functions of B1  symmetry.
 There are     5 symmetry adapted cartesian basis functions of B2  symmetry.
 There are    10 symmetry adapted basis functions of A1  symmetry.
 There are     1 symmetry adapted basis functions of A2  symmetry.
 There are     3 symmetry adapted basis functions of B1  symmetry.
 There are     5 symmetry adapted basis functions of B2  symmetry.
    19 basis functions,    36 primitive gaussians,    19 cartesian basis functions
     5 alpha electrons        5 beta electrons
       nuclear repulsion energy         9.1125818168 Hartrees.
 NAtoms=    3 NActive=    3 NUniq=    2 SFac= 2.25D+00 NAtFMM=   60 NAOKFM=F Big=F
 Integral buffers will be    131072 words long.
 Raffenetti 2 integral format.
 Two-electron integral symmetry is turned on.
 One-electron integrals computed using PRISM.
 NBasis=    19 RedAO= T EigKep=  4.21D-02  NBF=    10     1     3     5
 NBsUse=    19 1.00D-06 EigRej= -1.00D+00 NBFU=    10     1     3     5
 Initial guess from the checkpoint file:  "/home/chalabaj/snafu/ABINITIO/checkpoint.chk"
 B after Tr=     0.000000    0.000000    0.000000
         Rot=    1.000000    0.000000    0.000000    0.000000 Ang=   0.00 deg.
 Initial guess orbital symmetries:
       Occupied  (A1) (A1) (B2) (A1) (B1)
       Virtual   (A1) (B2) (B2) (A1) (B1) (A1) (B2) (A1) (A1) (A2)
                 (B1) (A1) (B2) (A1)
 Keep J ints in memory in symmetry-blocked form, NReq=898557.
 Requested convergence on RMS density matrix=1.00D-08 within 128 cycles.
 Requested convergence on MAX density matrix=1.00D-06.
 Requested convergence on             energy=1.00D-06.
 No special actions if energy rises.
 SCF Done:  E(RB-LYP) =  -76.3882039552     A.U. after    6 cycles
            NFock=  6  Conv=0.38D-08     -V/T= 2.0073

 **********************************************************************

            Population analysis using the SCF density.

 **********************************************************************

 Orbital symmetries:
       Occupied  (A1) (A1) (B2) (A1) (B1)
       Virtual   (A1) (B2) (B2) (A1) (B1) (A1) (B2) (A1) (A1) (A2)
                 (B1) (A1) (B2) (A1)
 The electronic state is 1-A1.
 Alpha  occ. eigenvalues --  -18.78248  -0.89920  -0.45757  -0.30629  -0.22375
 Alpha virt. eigenvalues --    0.03755   0.12109   0.72737   0.80166   0.83695
 Alpha virt. eigenvalues --    0.84902   1.00668   1.14792   1.67317   1.68922
 Alpha virt. eigenvalues --    1.72376   2.21763   2.51030   3.46576
          Condensed to atoms (all electrons):
               1          2          3
     1  O    8.270796   0.234485   0.234485
     2  H    0.234485   0.420504  -0.024871
     3  H    0.234485  -0.024871   0.420504
 Mulliken charges:
               1
     1  O   -0.739766
     2  H    0.369883
     3  H    0.369883
 Sum of Mulliken charges =   0.00000
 Mulliken charges with hydrogens summed into heavy atoms:
               1
     1  O    0.000000
 Electronic spatial extent (au):  <R**2>=             19.2330
 Charge=              0.0000 electrons
 Dipole moment (field-independent basis, Debye):
    X=              0.0000    Y=              0.0000    Z=             -2.0178  Tot=              2.0178
 Quadrupole moment (field-independent basis, Debye-Ang):
   XX=             -7.1981   YY=             -4.3541   ZZ=             -6.0320
   XY=              0.0000   XZ=              0.0000   YZ=              0.0000
 Traceless Quadrupole moment (field-independent basis, Debye-Ang):
   XX=             -1.3367   YY=              1.5073   ZZ=             -0.1706
   XY=              0.0000   XZ=              0.0000   YZ=              0.0000
 Octapole moment (field-independent basis, Debye-Ang**2):
  XXX=              0.0000  YYY=              0.0000  ZZZ=             -1.1124  XYY=              0.0000
  XXY=              0.0000  XXZ=             -0.3011  XZZ=              0.0000  YZZ=              0.0000
  YYZ=             -1.1230  XYZ=              0.0000
 Hexadecapole moment (field-independent basis, Debye-Ang**3):
 XXXX=             -5.2216 YYYY=             -6.2631 ZZZZ=             -6.3581 XXXY=              0.0000
 XXXZ=              0.0000 YYYX=              0.0000 YYYZ=              0.0000 ZZZX=              0.0000
 ZZZY=              0.0000 XXYY=             -2.1403 XXZZ=             -1.9766 YYZZ=             -1.8101
 XXYZ=              0.0000 YYXZ=              0.0000 ZZXY=              0.0000
 N-N= 9.112581816791D+00 E-N=-1.988025228726D+02  KE= 7.583703937988D+01
 Symmetry A1   KE= 6.765995437371D+01
 Symmetry A2   KE= 6.277366980297D-35
 Symmetry B1   KE= 4.605846138217D+00
 Symmetry B2   KE= 3.571238867951D+00
 Calling FoFJK, ICntrl=      2527 FMM=F ISym2X=1 I1Cent= 0 IOpClX= 0 NMat=1 NMatS=1 NMatT=0.
 ***** Axes restored to original set *****
 -------------------------------------------------------------------
 Center     Atomic                   Forces (Hartrees/Bohr)
 Number     Number              X              Y              Z
 -------------------------------------------------------------------
      1        8          -0.013337638    0.000000000   -0.010420509
      2        1           0.001280869    0.000000000    0.012106512
      3        1           0.012056768    0.000000000   -0.001686003
 -------------------------------------------------------------------
 Cartesian Forces:  Max     0.013337638 RMS     0.008047747

 GradGradGradGradGradGradGradGradGradGradGradGradGradGradGradGradGradGrad
 Berny optimization.
 Search for a local minimum.
 Step number   1 out of a maximum of    2
 All quantities printed in internal units (Hartrees-Bohrs-Radians)
 Second derivative matrix not updated -- first step.
 The second derivative matrix:
                          X1        Y1        Z1        X2        Y2
           X1           0.58437
           Y1           0.00000   1.00000
           Z1          -0.06968   0.00000   0.61912
           X2          -0.05965   0.00000  -0.04643   0.04802
           Y2           0.00000   0.00000   0.00000   0.00000   1.00000
           Z2           0.00015   0.00000  -0.54209  -0.00016   0.00000
           X3          -0.52472   0.00000   0.11611   0.01163   0.00000
           Y3           0.00000   0.00000   0.00000   0.00000   0.00000
           Z3           0.06953   0.00000  -0.07702   0.04659   0.00000
                          Z2        X3        Y3        Z3
           Z2           0.54208
           X3           0.00000   0.51309
           Y3           0.00000   0.00000   1.00000
           Z3           0.00001  -0.11611   0.00000   0.07701
 ITU=  0
     Eigenvalues ---    0.14317   0.84771   0.97200
 Angle between quadratic step and forces=  24.17 degrees.
 ClnCor:  largest displacement from symmetrization is 4.85D-15 for atom     3.
 Linear search not attempted -- first point.
 ClnCor:  largest displacement from symmetrization is 2.22D-16 for atom     2.
 TrRot= -0.004832  0.000000 -0.003775  0.000000  0.000000  0.000000
 Variable       Old X    -DE/DX   Delta X   Delta X   Delta X     New X
                                 (Linear)    (Quad)   (Total)
    X1       -0.00067  -0.01334   0.00000  -0.00793  -0.01276  -0.01343
    Y1        0.00000   0.00000   0.00000   0.00000   0.00000   0.00000
    Z1       -0.00053  -0.01042   0.00000  -0.00619  -0.00997  -0.01049
    X2       -0.00126   0.00128   0.00000   0.00544   0.00061  -0.00064
    Y2        0.00000   0.00000   0.00000   0.00000   0.00000   0.00000
    Z2        1.82490   0.01211   0.00000   0.01614   0.01237   1.83727
    X3        1.77039   0.01206   0.00000   0.01698   0.01215   1.78254
    Y3        0.00000   0.00000   0.00000   0.00000   0.00000   0.00000
    Z3       -0.44270  -0.00169   0.00000   0.00138  -0.00240  -0.44510
         Item               Value     Threshold  Converged?
 Maximum Force            0.013338     0.000450     NO 
 RMS     Force            0.008048     0.000300     NO 
 Maximum Displacement     0.012760     0.001800     NO 
 RMS     Displacement     0.007950     0.001200     NO 
 Predicted change in Energy=-2.875489D-04
 GradGradGradGradGradGradGradGradGradGradGradGradGradGradGradGradGradGrad

 1\1\GINC-403-AS67-01\Force\RBLYP\6-31G(d)\H2O1\CHALABAJ\19-Jul-2018\0\
 \#BLYP/6-31g* Force guess=(Read,TCheck)\\comment\\0,1\O,-0.0003561613,
 0.,-0.000278294\H,-0.0006643,0.,0.96569592\H,0.9368500399,0.,-0.234267
 2114\\Version=ES64L-G09RevD.01\State=1-A1\HF=-76.388204\RMSD=3.830e-09
 \RMSF=8.048e-03\Dipole=0.625572,0.,0.4887506\Quadrupole=0.3460125,-0.9
 938042,0.6477918,0.,-0.6051864,0.\PG=C02V [C2(O1),SGV(H2)]\\@


 ERWIN WITH HIS PSI CAN DO
 CALCULATIONS QUITE A FEW.
 BUT ONE THING HAS NOT BEEN SEEN
 JUST WHAT DOES PSI REALLY MEAN.
 -- WALTER HUCKEL, TRANS. BY FELIX BLOCH
 Job cpu time:       0 days  0 hours  0 minutes  1.2 seconds.
 File lengths (MBytes):  RWF=      5 Int=      0 D2E=      0 Chk=      1 Scr=      1
 Normal termination of Gaussian 09 at Thu Jul 19 10:24:01 2018.
