
 Nodes     nprocs
 n01          4

 Using customized tuning parameters: mindgm=1; mindgv=20; mindgc=4; mindgr=1; noblas=0; minvec=7
 default implementation of scratch files=sf


 Variables initialized (889), CPU time= 0.02 sec
 Commands  initialized (702), CPU time= 0.02 sec, 572 directives.
 Default parameters read. Elapsed time= 0.12 sec

 Checking input...
 Passed
1


                                         ***  PROGRAM SYSTEM MOLPRO  ***
                                       Copyright, TTI GmbH Stuttgart, 2015
                                    Version 2015.1 linked Nov 26 2015 20:23:21


 **********************************************************************************************************************************
 LABEL *   gradients
  64 bit mpp version                                                                     DATE: 13-Jul-18          TIME: 21:46:54
 **********************************************************************************************************************************

 SHA1:             41aa48e1468dac041f2eaabdf410f3ce2ee7f8bf
 **********************************************************************************************************************************

 Variable memory set to 1000000000 words,  buffer space   230000 words



 Temporary file  2  input.wfu        assigned.  Implementation=df



 **********************************************************************************************************************************
 DATASETS  * FILE   NREC   LENGTH (MB)   RECORD NAMES
              2       1        0.03       500
                                          VAR

 PROGRAMS   *        TOTAL      FILE
 CPU TIMES  *         0.25      0.00
 REAL TIME  *         0.39 SEC
 DISK USED  *         0.13 MB
 **********************************************************************************************************************************

 PUNCHFILE INPUT.PUN OPENED

 ZUNIT=ANG


Geometry recognized as XYZ

 SETTING BASIS          =    6-31G



 TRUNCATING FILE 1 AFTER   1 RECORDS

 TRUNCATING FILE 2 BEFORE RECORD  3000


 **********************************************************************************************************************************
 DATASETS  * FILE   NREC   LENGTH (MB)   RECORD NAMES
              2       2        1.15       500      700
                                          VAR     GEOM

 PROGRAMS   *        TOTAL      DATA      FILE
 CPU TIMES  *         0.25      0.00      0.00
 REAL TIME  *         0.40 SEC
 DISK USED  *         0.13 MB
 **********************************************************************************************************************************


 Recomputing integrals since basis changed


 Using spherical harmonics

 Library entry O      S 6-31G                selected for orbital group  1
 Library entry O      P 6-31G                selected for orbital group  1
 Library entry H      S 6-31G                selected for orbital group  2

1PROGRAM * SEWARD (Integral evaluation for generally contracted gaussian basis sets)     Author: Roland Lindh, 1990

 Geometry written to block  1 of record 700


 Point group  Cs



 ATOMIC COORDINATES

 NR  ATOM    CHARGE       X              Y              Z

   1  O       8.00   -0.000120942    0.000000000   -0.000094486
   2  H       1.00   -0.001850042    0.000000000    1.816629628
   3  H       1.00    1.762220634    0.000000000   -0.441277506

 Bond lengths in Bohr (Angstrom)

 1-2  1.816724937  1-3  1.816725155
     ( 0.961369435)     ( 0.961369550)

 Bond angles

  2-1-3  104.10906087

 NUCLEAR CHARGE:                   10
 NUMBER OF PRIMITIVE AOS:          30
 NUMBER OF SYMMETRY AOS:           30
 NUMBER OF CONTRACTIONS:           13   (  11A'  +   2A"  )
 NUMBER OF CORE ORBITALS:           1   (   1A'  +   0A"  )
 NUMBER OF VALENCE ORBITALS:        6   (   5A'  +   1A"  )


 NUCLEAR REPULSION ENERGY    9.15605692

 Eigenvalues of metric

         1 0.682E-01 0.121E+00 0.322E+00 0.328E+00 0.424E+00 0.682E+00 0.743E+00 0.101E+01
         2 0.498E+00 0.150E+01


 Contracted 2-electron integrals neglected if value below      1.0D-11
 AO integral compression algorithm  1   Integral accuracy      1.0D-11

     1.049 MB (compressed) written to integral file (100.0%)

     Node minimum: 0.262 MB, node maximum: 0.262 MB


 NUMBER OF SORTED TWO-ELECTRON INTEGRALS:        760.     BUFFER LENGTH:  32768
 NUMBER OF SEGMENTS:   1  SEGMENT LENGTH:        760      RECORD LENGTH: 524288

 Memory used in sort:       0.56 MW

 SORT1 READ        4165. AND WROTE         651. INTEGRALS IN      1 RECORDS. CPU TIME:     0.00 SEC, REAL TIME:     0.00 SEC
 SORT2 READ        2391. AND WROTE        2811. INTEGRALS IN      4 RECORDS. CPU TIME:     0.00 SEC, REAL TIME:     0.00 SEC

 Node minimum:         544.  Node maximum:         778. integrals

 OPERATOR DM      FOR CENTER  0  COORDINATES:    0.000000    0.000000    0.000000


 **********************************************************************************************************************************
 DATASETS  * FILE   NREC   LENGTH (MB)   RECORD NAMES
              1      18       16.41       500      700      610      900      950      970     1000      129      960     1100
                                          VAR     GEOM    BASINP   SYMINP    ZMAT    AOBASIS   BASIS     P2S    ABASIS      S
                                         1400     1410     1200     1210     1080     1600     1650     1700
                                           T        V       H0       H01     AOSYM     SMH    MOLCAS    OPER

              2       5        1.43       500      700      610     1000      520
                                          VAR     GEOM    BASINP    BASIS   MCVARS

 PROGRAMS   *        TOTAL       INT      DATA      FILE
 CPU TIMES  *         0.57      0.31      0.00      0.00
 REAL TIME  *         1.36 SEC
 DISK USED  *        16.94 MB
 GA USED    *         0.00 MB       (max)       0.00 MB       (current)
 **********************************************************************************************************************************

1PROGRAM * RHF-SCF (OPEN SHELL)       Authors: W. Meyer, H.-J. Werner


 NUMBER OF ELECTRONS:       5+    4-
 CONVERGENCE THRESHOLDS:    1.00E-06 (Density)    1.00E-07 (Energy)
 MAX. NUMBER OF ITERATIONS:       60
 INTERPOLATION TYPE:            DIIS
 INTERPOLATION STEPS:              2 (START)      1 (STEP)
 LEVEL SHIFTS:                 -0.60 (CLOSED) -0.30 (OPEN)



 Orbital guess generated from atomic densities. Full valence occupancy:    6   1

 Molecular orbital dump at record        2100.2

 Initial alpha occupancy:   4   1
 Initial beta  occupancy:   4   0
 Wave function symmetry:    2

 ITERATION    DDIFF          GRAD             ENERGY        2-EL.EN.            DIPOLE MOMENTS         DIIS   ORB.
    1      0.000D+00      0.000D+00       -75.53439643     64.216030    1.06316    0.00000    0.83064    0    start
    2      0.000D+00      0.372D-01       -75.57491548     66.353768    1.07650    0.00000    0.84105    1    diag,B
    3      0.283D-01      0.102D-01       -75.57806567     66.233876    1.05514    0.00000    0.82437    2    diag,B
    4      0.878D-02      0.343D-02       -75.57856606     66.280431    1.04753    0.00000    0.81842    3    diag,B
    5      0.442D-02      0.405D-03       -75.57857576     66.284727    1.04820    0.00000    0.81894    4    diag,B
    6      0.456D-03      0.171D-03       -75.57857807     66.283577    1.04888    0.00000    0.81948    5    diag,B
    7      0.315D-03      0.419D-04       -75.57857822     66.283991    1.04902    0.00000    0.81959    6    fixocc
    8      0.902D-04      0.601D-05       -75.57857822     66.283887    1.04904    0.00000    0.81960    7    diag,B
    9      0.897D-05      0.162D-05       -75.57857822     66.283948    1.04905    0.00000    0.81961    8    diag,B
   10      0.265D-05      0.273D-06       -75.57857822     66.283951    1.04905    0.00000    0.81961    9    orth
   11      0.586D-06      0.403D-07       -75.57857822     66.283952    1.04905    0.00000    0.81961    0    orth

 Final alpha occupancy:   4   1
 Final beta  occupancy:   4   0

 !RHF STATE 1.2 Energy                -75.578578218510
 Nuclear energy                         9.15605692
 One-electron energy                 -117.87661110
 Two-electron energy                   33.14197596
 Virial quotient                       -0.99855970
 !RHF STATE 1.2 Dipole moment           1.04905190     0.00000000     0.81960909
 Dipole moment /Debye                   2.66624932     0.00000000     2.08310207

 ELECTRON ORBITALS
 =================


   Orb  Occ    Energy  Couls-En    Coefficients

                                   1 1s      1 1s      1 1s      1 2px     1 2pz     1 2px     1 2pz     2 1s      2 1s      3 1s
                                   3 1s

   1.1   2   -21.1206  -54.1421  0.995840  0.021899 -0.008324  0.001681  0.001314 -0.001625 -0.001270  0.000254  0.001978  0.000254
                                 0.001978

   2.1   2    -1.8484   -9.8274 -0.217243  0.509755  0.471935  0.101877  0.079595  0.054976  0.042952  0.134391 -0.030562  0.134391
                                -0.030562

   3.1   2    -1.2016   -8.1941  0.000000 -0.000000 -0.000000 -0.354944  0.454307 -0.175732  0.224927  0.249418  0.036409 -0.249418
                                -0.036409

   4.1   2    -1.0623   -8.2670  0.073085 -0.197749 -0.220021  0.489073  0.382105  0.292421  0.228464  0.129772  0.030952  0.129772
                                 0.030952

                                   1 2py     1 2py

   1.2   +    -1.1268   -8.6078  0.730050  0.409159

 HOMO      4.1    -1.062284 =     -28.9062eV
 LUMO      5.1    -0.139867 =      -3.8060eV
 LUMO-HOMO         0.922417 =      25.1002eV


 **********************************************************************************************************************************
 DATASETS  * FILE   NREC   LENGTH (MB)   RECORD NAMES
              1      18       16.41       500      700      610      900      950      970     1000      129      960     1100
                                          VAR     GEOM    BASINP   SYMINP    ZMAT    AOBASIS   BASIS     P2S    ABASIS      S
                                         1400     1410     1200     1210     1080     1600     1650     1700
                                           T        V       H0       H01     AOSYM     SMH    MOLCAS    OPER

              2       6        1.57       500      700      610     1000      520     2100
                                          VAR     GEOM    BASINP    BASIS   MCVARS     RHF

 PROGRAMS   *        TOTAL        HF       INT      DATA      FILE
 CPU TIMES  *         0.64      0.07      0.31      0.00      0.00
 REAL TIME  *         1.50 SEC
 DISK USED  *        88.95 MB
 SF USED    *         0.00 MB
 GA USED    *         0.00 MB       (max)       0.00 MB       (current)
 **********************************************************************************************************************************

1PROGRAM * MULTI (Direct Multiconfiguration SCF)       Authors: P.J. Knowles, H.-J. Werner (1984)     S.T. Elbert (1988)


 Number of closed-shell orbitals:   3 (   3   0 )
 Number of active  orbitals:        3 (   3   0 )
 Number of external orbitals:       7 (   5   2 )

 State symmetry 1

 Number of electrons:     3    Spin symmetry=Doublet   Space symmetry=2
 Number of states:        2
 Number of CSFs:          0   (0 determinants, 9 intermediate states)
 CI vector dump at record                2501.2

 Iteration controls:
             1  2  3  4  5  6  7  8  9 10 11 12 13 14 15 16 17 18 19 20 21 22 23 24 25 26 27 28 29 30 31 32 33 34 35 36 37 38 39
 DIAGCI      T  T  T  T  T  T  T  T  T  T  T  T  T  T  T  T  T  T  T  T  T  T  T  T  T  T  T  T  T  T  T  T  T  T  T  T  T  T  T
 WERNER      T  T  T  T  T  T  T  T  T  T  T  T  T  T  T  T  T  T  T  T  T  T  T  T  T  T  T  T  T  T  T  T  T  T  T  T  T  T  T
 INTERNAL    F  T  T  T  T  T  T  T  T  T  T  T  T  T  T  T  T  T  T  T  T  T  T  T  T  T  T  T  T  T  T  T  T  T  T  T  T  T  T

 Molecular orbitals read from record     2100.2  Type=RHF/CANONICAL (state 1.2)

 Wavefunction dump at record             2101.2

 Convergence thresholds  0.10E-01 (gradient)  0.10E-05 (energy)  0.10E-02 (step length)

 Weight factors for state symmetry  1:    0.50000   0.50000

 Number of orbital rotations:       39   (     9 Core/Active     15 Core/Virtual   0 Active/Active     15 Active/Virtual)
 Total number of variables:         39


 ITER. MIC  NCI  NEG     ENERGY(VAR)     ENERGY(PROJ)   ENERGY CHANGE     GRAD(0)  GRAD(ORB)   GRAD(CI)     STEP       TIME

 MORE STATES THAN CONFIGURATIONS SPECIFIED:  0  2

 GLOBAL ERROR fehler on processor   1                                         
