
 Primary working directories    : /home/chalabaj/SNAFU/ABINITIO/scratch
 Secondary working directories  : /home/chalabaj/SNAFU/ABINITIO/scratch
 Wavefunction directory         : /home/chalabaj/SNAFU/ABINITIO/scratch/
 Main file repository           : /home/chalabaj/SNAFU/ABINITIO/

 SHA1      : 41aa48e1468dac041f2eaabdf410f3ce2ee7f8bf
 NAME      : 2015.1.0
 ARCHNAME  : linux/x86_64
 FC        : /opt/intel/composer_xe_2015.1.133/bin/intel64/ifort
 BLASLIB   : -Wl,-_start-group /opt/intel/mkl/lib/intel64/libmkl_intel_ilp64.a /opt/intel/mkl/lib/intel64/libmkl_intel_thread.a /opt/intel/mkl/lib/intel64/libmkl_core.a -Wl,-_end-group
 id        : vscht

 Nodes      nprocs
 403-as67-01    1

 Using customized tuning parameters: mindgm=1; mindgv=20; mindgc=4; mindgr=1; noblas=0; minvec=7
 default implementation of scratch files=df  

 memory, 1000,m;
 file, 2, input.wfu,unknown
 PUNCH, input.pun,new
 gprint, orbital,civector
 symmetry,nosym
 Angstrom
 
 geometry=../abinit_geom.xyz
 Including file /home/chalabaj/SNAFU/ABINITIO/../abinit_geom.xyz
 
 basis=6-31g
 
                                                                  !-for simple CASSCF, you don't need to modify anything below this
 
                                                        !-we need to get rid of the SAMC records in file 2 (input.wfu,restart file)
                                                               !-otherwise, the forces and NACME are wrong for the following reason
                                                         !-cpmscf will not rewrite itself it but ather write into following records
                                                   !-but the subsequent call to forces would read from old records -&gt; wrong numbers
                                                                              !-we use file 2 for forces and NACME due to df-casscf
 
 data,truncate,2,5101
 
 if (lastorb.ne.MCSCF)then
    {hf;wf,9,0,1}
 endif
 
 multi;
 occ,5;
 closed,3;
 WF,9,0,1;
 state,2;
 maxiter,40;
 ORBITAL,2140.2;
 NOEXTRA;
 
 cpmcscf,grad,1.1,ACCU=1d-9,save=5101.2;
 forces;samc,5101.2;
 

 Variables initialized (889), CPU time= 0.00 sec
 Commands  initialized (702), CPU time= 0.02 sec, 572 directives.
 Default parameters read. Elapsed time= 0.04 sec

 Checking input...
 Passed
1


                                         ***  PROGRAM SYSTEM MOLPRO  ***
                                       Copyright, TTI GmbH Stuttgart, 2015
                                    Version 2015.1 linked Nov 26 2015 20:23:21


 **********************************************************************************************************************************
 LABEL *                                                                                 
  64 bit serial version                                                                  DATE: 24-Jul-18          TIME: 10:16:43  
 **********************************************************************************************************************************

 SHA1:             41aa48e1468dac041f2eaabdf410f3ce2ee7f8bf
 **********************************************************************************************************************************

 Variable memory set to 1000000000 words,  buffer space   230000 words



 Permanent file  2  input.wfu        assigned.  Implementation=df    Size=  1.62 MB
 

 PROGRAM * RESTART 


 Reading variables from file 2

 _NUMVAR         =    896.00000000
 _DKROLL_DONE    =      0.00000000
 _FOCKDONE       =      1.00000000
 _GRADONE        =      1.00000000
 _INTDONE        =      1.00000000
 _SCFDONE        =      1.00000000
 _DIRECT         =      0.00000000
 _DKHO           =     -1.00000000
 _BASIS          =    6-31G
 _ZUNIT          =    ANG
 _NELEC          =      9.00000000
 _PROGRAM        =    FORCES
 _CPUSTEP        =      0.02000000
 _SYSSTEP        =      0.00000000
 _WALLSTEP       =      0.01000000
 _BASINP         =    610.00000000
 _CPUTOT         =      0.54000000
 _DFTEXFAC       =      1.00000000
 _DMX(1:2)       =      1.05367737     0.84655387
 _DMY(1:2)       =     -0.00000000     0.00000000
 _DMZ(1:2)       =      0.82322290     0.66140027
 _DMX_SCF        =      1.04905190
 _DMY_SCF        =     -0.00000000
 _DMZ_SCF        =      0.81960909
 _EHOMO          =     -1.12680293
 _ELUMO          =     -0.13986690
 _EIGS(1:13)     =    -21.12062114    -1.84839858    -1.20162501    -1.06228365    -1.12680293    -0.13986690
                       -0.04678565     0.64548114     0.65281685     0.72604476     0.78812453     0.92290387
                        1.22726361
 _ENERGY(1:2)    =    -75.57751006   -75.50637900
 _ENERGY_METHOD  =    MULTI
 _ENERGY_BASIS   =    6-31G
 _GEOMETRY_METHOD=     
 _GEOMETRY_BASIS =     
 _ENUC           =      9.15605692
 _EPS1(1:5)      =    -21.10924909    -1.83282388    -1.19501529    -0.85277694    -0.92338916
 _GRADENERG      =    -75.57751006
 _GRADEXFAC      =   9999.00000000
 _GRADMETHOD     =      5.00000000
 _VIRIAL         =     -0.11266796
 _ITERATIONS     =      3.00000000
 _LASTNELEC      =      3.00000000
 _LASTSPIN       =      1.00000000
 _LASTSYM        =      1.00000000
 _ORBITAL        =   2140.20000000
 _SEIG_MIN       =      0.06822641
 _SEWPROP        =      1.00000000
 _STATUS         =      1.00000000
 _SYSTOT         =      1.66000000
 _WALLTOT        =      2.20000000
 _LASTORB        =    MCSCF
 _PGROUP         =    C1  
 _TIME           =    10:16:40
 _DMX_CC(1:2)    =     -1.12033550    -1.12033550
 _DMY_CC(1:2)    =     -0.00000000    -0.00000000
 _DMZ_CC(1:2)    =     -0.87530205    -0.87530205
 _DMX_NUC(1:2)   =      1.75940305     1.75940305
 _DMY_NUC(1:2)   =      0.00000000     0.00000000
 _DMZ_NUC(1:2)   =      1.37459623     1.37459623
 _TRDMX          =     -0.00000000
 _TRDMY          =     -0.19644840
 _TRDMZ          =     -0.00000000

 Geometry written to block  1 of record 700


 **********************************************************************************************************************************
 DATASETS  * FILE   NREC   LENGTH (MB)   RECORD NAMES
              2       8        1.70       500      700      610     1000      520     2100     2140     5101   
                                          VAR     GEOM    BASINP    BASIS   MCVARS     RHF     MCSCF   CPSAMC    

 PROGRAMS   *        TOTAL   RESTART
 CPU TIMES  *         0.11      0.00
 REAL TIME  *         0.12 SEC
 DISK USED  *         0.03 MB      
 **********************************************************************************************************************************

 PUNCHFILE INPUT.PUN OPENED

 ZSYMEL=NOSYM
 ZUNIT=ANG
 

Geometry recognized as XYZ

 SETTING BASIS          =    6-31G

 

 TRUNCATING FILE 1 AFTER   1 RECORDS

 TRUNCATING FILE 2 BEFORE RECORD  5101


 **********************************************************************************************************************************
 DATASETS  * FILE   NREC   LENGTH (MB)   RECORD NAMES
              2       7        1.70       500      700      610     1000      520     2100     2140   
                                          VAR     GEOM    BASINP    BASIS   MCVARS     RHF     MCSCF   

 PROGRAMS   *        TOTAL      DATA   RESTART
 CPU TIMES  *         0.12      0.00      0.00
 REAL TIME  *         0.12 SEC
 DISK USED  *         2.85 MB      
 **********************************************************************************************************************************


 Recomputing integrals since basis changed


 Using spherical harmonics

 Library entry O      S 6-31G                selected for orbital group  1
 Library entry O      P 6-31G                selected for orbital group  1
 Library entry H      S 6-31G                selected for orbital group  2

1PROGRAM * SEWARD (Integral evaluation for generally contracted gaussian basis sets)     Author: Roland Lindh, 1990

 Geometry written to block  1 of record 700


 Point group  C1  



 ATOMIC COORDINATES

 NR  ATOM    CHARGE       X              Y              Z

   1  O       8.00   -0.000120422    0.000000000   -0.000094080
   2  H       1.00   -0.001962092    0.000000000    1.816764535
   3  H       1.00    1.762324425    0.000000000   -0.441418865

 Bond lengths in Bohr (Angstrom)

 1-2  1.816859549  1-3  1.816859765
     ( 0.961440669)     ( 0.961440783)

 Bond angles

  2-1-3  104.11615275

 NUCLEAR CHARGE:                   10
 NUMBER OF PRIMITIVE AOS:          30
 NUMBER OF SYMMETRY AOS:           30
 NUMBER OF CONTRACTIONS:           13   (  13A   )
 NUMBER OF CORE ORBITALS:           1   (   1A   )
 NUMBER OF VALENCE ORBITALS:        6   (   6A   )


 NUCLEAR REPULSION ENERGY    9.15536171

 EXTRA SYMMETRY OF AOS IN SYMMETRY 1:   1 1 1 1 2 1 1 2 1 1   1 1 1

 Eigenvalues of metric

         1 0.682E-01 0.121E+00 0.322E+00 0.328E+00 0.424E+00 0.498E+00 0.682E+00 0.743E+00


 Contracted 2-electron integrals neglected if value below      1.0D-11
 AO integral compression algorithm  1   Integral accuracy      1.0D-11

     0.262 MB (compressed) written to integral file ( 95.6%)


 NUMBER OF SORTED TWO-ELECTRON INTEGRALS:       4186.     BUFFER LENGTH:  32768
 NUMBER OF SEGMENTS:   1  SEGMENT LENGTH:       4186      RECORD LENGTH: 524288

 Memory used in sort:       0.56 MW

 SORT1 READ        6781. AND WROTE        2280. INTEGRALS IN      1 RECORDS. CPU TIME:     0.00 SEC, REAL TIME:     0.01 SEC
 SORT2 READ        2280. AND WROTE        4186. INTEGRALS IN      1 RECORDS. CPU TIME:     0.00 SEC, REAL TIME:     0.00 SEC

 FILE SIZES:   FILE 1:    16.7 MBYTE,  FILE 4:     4.2 MBYTE,   TOTAL:     20.9 MBYTE

 OPERATOR DM      FOR CENTER  0  COORDINATES:    0.000000    0.000000    0.000000


 **********************************************************************************************************************************
 DATASETS  * FILE   NREC   LENGTH (MB)   RECORD NAMES
              1      19       16.43       500      700      610      900      950      970     1000      129      960     1100   
                                          VAR     GEOM    BASINP   SYMINP    ZMAT    AOBASIS   BASIS     P2S    ABASIS      S 
                                         1400     1410     1200     1210     1080     1600     1650     1300     1700   
                                           T        V       H0       H01     AOSYM     SMH    MOLCAS    ERIS     OPER   

              2       7        1.70       500      700      610     1000      520     2100     2140   
                                          VAR     GEOM    BASINP    BASIS   MCVARS     RHF     MCSCF   

 PROGRAMS   *        TOTAL       INT      DATA   RESTART
 CPU TIMES  *         0.48      0.36      0.00      0.00
 REAL TIME  *         1.72 SEC
 DISK USED  *        22.63 MB      
 **********************************************************************************************************************************

1PROGRAM * MULTI (Direct Multiconfiguration SCF)       Authors: P.J. Knowles, H.-J. Werner (1984)     S.T. Elbert (1988)


 Number of closed-shell orbitals:   3 (   3 )
 Number of active  orbitals:        2 (   2 )
 Number of external orbitals:       8 (   8 )

 State symmetry 1

 Number of electrons:     3    Spin symmetry=Doublet   Space symmetry=1
 Number of states:        2
 Number of CSFs:          2   (2 determinants, 2 intermediate states)

 Iteration controls:
             1  2  3  4  5  6  7  8  9 10 11 12 13 14 15 16 17 18 19 20 21 22 23 24 25 26 27 28 29 30 31 32 33 34 35 36 37 38 39
 DIAGCI      T  T  T  T  T  T  T  T  T  T  T  T  T  T  T  T  T  T  T  T  T  T  T  T  T  T  T  T  T  T  T  T  T  T  T  T  T  T  T
 WERNER      T  T  T  T  T  T  T  T  T  T  T  T  T  T  T  T  T  T  T  T  T  T  T  T  T  T  T  T  T  T  T  T  T  T  T  T  T  T  T
 INTERNAL    F  T  T  T  T  T  T  T  T  T  T  T  T  T  T  T  T  T  T  T  T  T  T  T  T  T  T  T  T  T  T  T  T  T  T  T  T  T  T

 Molecular orbitals read from record     2140.2  Type=MCSCF/NATURAL (state averaged)

 Wavefunction dump at record             2140.2

 Convergence thresholds  0.10E-05 (gradient)  0.10E-07 (energy)  0.10E-02 (step length)

 Weight factors for state symmetry  1:    0.50000   0.50000

 Number of orbital rotations:       46   (     6 Core/Active     24 Core/Virtual   0 Active/Active     16 Active/Virtual)
 Total number of variables:         50


 ITER. MIC  NCI  NEG     ENERGY(VAR)     ENERGY(PROJ)   ENERGY CHANGE     GRAD(0)  GRAD(ORB)   GRAD(CI)     STEP       TIME

   1   17    7    0     -75.54196455     -75.54196455   -0.00000000    0.00012038 0.00000000 0.00000000  0.33D-04      0.01
   2   16   10    0     -75.54196455     -75.54196455   -0.00000000    0.00000000 0.00000000 0.00000000  0.17D-09      0.01

 ** WVFN ****  CONVERGENCE REACHED, FINAL GRADIENT:  0.91D-14

 Solving MCSCF z-vector equations for state  1.1, requested accuracy=      0.10D-08
 Convergence reached in   9 iterations (  9 expansion vectors), accuracy=  0.12D-09

 SA-Gradient information saved on record      5101.2



 Results for state 1.1
 =====================

 !MCSCF STATE 1.1 Energy              -75.577524173141
 Nuclear energy                         9.15536171
 Kinetic energy                        75.62517847
 One electron energy                 -117.83795018
 Two electron energy                   33.10506429
 Virial ratio                           1.99936986

 !MCSCF STATE 1.1 Dipole moment         1.05368803    -0.00000000     0.82323123
 Dipole moment /Debye                   2.67803243    -0.00000000     2.09230804

 Results for state 2.1
 =====================

 !MCSCF STATE 2.1 Energy              -75.506404929727
 Nuclear energy                         9.15536171
 Kinetic energy                        75.69092374
 One electron energy                 -117.96244167
 Two electron energy                   33.30067502
 Virial ratio                           1.99756221

 !MCSCF STATE 2.1 Dipole moment         0.84660131     0.00000000     0.66143733
 Dipole moment /Debye                   2.15170495     0.00000000     1.68109589

 State-averaged charge density matrix saved on record  2140.2 (density set 1)

 !MCSCF expec         <1.1|DMX|1.1>     1.053688030748 au =     2.678032425188 Debye
 !MCSCF expec         <2.1|DMX|2.1>     0.846601307761 au =     2.151704951778 Debye

 !MCSCF trans         <2.1|DMY|1.1>    -0.196415562042 au =    -0.499205864174 Debye

 !MCSCF expec         <1.1|DMZ|1.1>     0.823231232238 au =     2.092308035232 Debye
 !MCSCF expec         <2.1|DMZ|2.1>     0.661437332253 au =     1.681095894908 Debye


 NATURAL ORBITALS (state averaged)
 =================================

   Orb     Occ        Energy       Coefficients

                                   1 1s      1 1s      1 1s      1 2px     1 2py     1 2pz     1 2px     1 2py     1 2pz     2 1s   
                                   2 1s      3 1s      3 1s   

   1.1  2.00000   -21.109238     0.995799  0.021977 -0.008090  0.001062  0.000000  0.000830 -0.001342  0.000000 -0.001048  0.000181
                                 0.001880  0.000181  0.001880

   2.1  2.00000    -1.832767    -0.214842  0.500484  0.468427  0.112870  0.000000  0.088184  0.063994  0.000000  0.049997  0.137937
                                -0.028816  0.137937 -0.028816

   3.1  2.00000    -1.194974     0.000000 -0.000000 -0.000000 -0.354060 -0.000000  0.453177 -0.179298 -0.000000  0.229491  0.246705
                                 0.035030 -0.246705 -0.035030

   4.1  1.50000    -0.923353     0.079251 -0.216892 -0.219835  0.494137 -0.000000  0.386062  0.285434 -0.000000  0.223005  0.123693
                                 0.027992  0.123693  0.027992

   5.1  1.50000    -0.852756     0.000000 -0.000000 -0.000000  0.000000  0.707783  0.000000  0.000000  0.435631  0.000000  0.000000
                                -0.000000  0.000000  0.000000

 Total charge:   1.000000000000
 

 Natural orbital dump (state averaged) at molpro section  2140.2    (Orbital set 2)


 CI vector
 =========

 a2      0.0000000   1.0000000
 2a      1.0000000   0.0000000

 TOTAL ENERGIES                       -75.57752417   -75.50640493



 **********************************************************************************************************************************
 DATASETS  * FILE   NREC   LENGTH (MB)   RECORD NAMES
              1      20       16.46       500      700      610      900      950      970     1000      129      960     1100   
                                          VAR     GEOM    BASINP   SYMINP    ZMAT    AOBASIS   BASIS     P2S    ABASIS      S 
                                         1400     1410     1200     1210     1080     1600     1650     1300     1700     1380   
                                           T        V       H0       H01     AOSYM     SMH    MOLCAS    ERIS     OPER     JKOP   

              2       8        1.70       500      700      610     1000      520     2100     2140     5101   
                                          VAR     GEOM    BASINP    BASIS   MCVARS     RHF     MCSCF   CPSAMC    

 PROGRAMS   *        TOTAL     MULTI       INT      DATA   RESTART
 CPU TIMES  *         0.49      0.01      0.36      0.00      0.00
 REAL TIME  *         1.77 SEC
 DISK USED  *        22.63 MB      
 **********************************************************************************************************************************

1PROGRAM * FORCE (Gradient of the energy)

 SA-MCSCF information from    5101.2
 Orbitals from record         2140.2

 Number of closed-shell orbitals:  3 (  3 )
 Number of active orbitals:        2 (  2 )
 Number of occupied orbitals:      5 (  5 )

 Number of electrons=  9     Doublet     Space symmetry=1      Wavefunction type: SA-MCSCF


 End of calculation of the energy gradient  ,IREST=   0


 SA-MC GRADIENT FOR STATE 1.1

 Atom          dE/dx               dE/dy               dE/dz

   1        -0.001953522        -0.000000000        -0.001526139
   2         0.025717628         0.000000000        -0.030903851
   3        -0.023764106         0.000000000         0.032429990

 Nuclear force contribution to virial =        -0.112390376


 **********************************************************************************************************************************
 DATASETS  * FILE   NREC   LENGTH (MB)   RECORD NAMES
              1      20       16.46       500      700      610      900      950      970     1000      129      960     1100   
                                          VAR     GEOM    BASINP   SYMINP    ZMAT    AOBASIS   BASIS     P2S    ABASIS      S 
                                         1400     1410     1200     1210     1080     1600     1650     1300     1700     1380   
                                           T        V       H0       H01     AOSYM     SMH    MOLCAS    ERIS     OPER     JKOP   

              2       8        1.70       500      700      610     1000      520     2100     2140     5101   
                                          VAR     GEOM    BASINP    BASIS   MCVARS     RHF     MCSCF   CPSAMC    

 PROGRAMS   *        TOTAL    FORCES     MULTI       INT      DATA   RESTART
 CPU TIMES  *         0.50      0.00      0.01      0.36      0.00      0.00
 REAL TIME  *         1.78 SEC
 DISK USED  *        22.63 MB      
 **********************************************************************************************************************************

 MULTI/6-31G energy=    -75.506404929727

        MULTI   
    -75.57752417
 **********************************************************************************************************************************
 Variable memory released
