
 Primary working directories    : /home/chalabaj/SNAFU/ABINITIO/scratch
 Secondary working directories  : /home/chalabaj/SNAFU/ABINITIO/scratch
 Wavefunction directory         : /home/chalabaj/SNAFU/ABINITIO/scratch/
 Main file repository           : /home/chalabaj/SNAFU/ABINITIO/

 SHA1      : 41aa48e1468dac041f2eaabdf410f3ce2ee7f8bf
 NAME      : 2015.1.0
 ARCHNAME  : linux/x86_64
 FC        : /opt/intel/composer_xe_2015.1.133/bin/intel64/ifort
 BLASLIB   : -Wl,-_start-group /opt/intel/mkl/lib/intel64/libmkl_intel_ilp64.a /opt/intel/mkl/lib/intel64/libmkl_intel_thread.a /opt/intel/mkl/lib/intel64/libmkl_core.a -Wl,-_end-group
 id        : vscht

 Nodes      nprocs
 403-as67-01    1

 Using customized tuning parameters: mindgm=1; mindgv=20; mindgc=4; mindgr=1; noblas=0; minvec=7
 default implementation of scratch files=df  

 memory, 1000,m;
 file, 2, input.wfu,unknown
 PUNCH, input.pun,new
 gprint, orbital,civector
 symmetry,nosym
 Angstrom
 
 geometry=../abinit_geom.xyz
 Including file /home/chalabaj/SNAFU/ABINITIO/../abinit_geom.xyz
 
 basis=6-31g
 
                                                                  !-for simple CASSCF, you don't need to modify anything below this
 
                                                        !-we need to get rid of the SAMC records in file 2 (input.wfu,restart file)
                                                               !-otherwise, the forces and NACME are wrong for the following reason
                                                         !-cpmscf will not rewrite itself it but ather write into following records
                                                   !-but the subsequent call to forces would read from old records -&gt; wrong numbers
                                                                              !-we use file 2 for forces and NACME due to df-casscf
 
 data,truncate,2,5101
 
 if (lastorb.ne.MCSCF)then
    {hf;wf,9,0,1}
 endif
 
 multi;
 occ,5;
 closed,3;
 WF,9,0,1;
 state,2;
 maxiter,40;
 ORBITAL,2140.2;
 NOEXTRA;
 
 cpmcscf,grad,1.1,ACCU=1d-9,save=5101.2;
 forces;samc,5101.2;
 

 Variables initialized (889), CPU time= 0.00 sec
 Commands  initialized (702), CPU time= 0.01 sec, 572 directives.
 Default parameters read. Elapsed time= 0.04 sec

 Checking input...
 Passed
1


                                         ***  PROGRAM SYSTEM MOLPRO  ***
                                       Copyright, TTI GmbH Stuttgart, 2015
                                    Version 2015.1 linked Nov 26 2015 20:23:21


 **********************************************************************************************************************************
 LABEL *                                                                                 
  64 bit serial version                                                                  DATE: 24-Jul-18          TIME: 21:16:36  
 **********************************************************************************************************************************

 SHA1:             41aa48e1468dac041f2eaabdf410f3ce2ee7f8bf
 **********************************************************************************************************************************

 Variable memory set to 1000000000 words,  buffer space   230000 words



 Permanent file  2  input.wfu        assigned.  Implementation=df  
 


 **********************************************************************************************************************************
 DATASETS  * FILE   NREC   LENGTH (MB)   RECORD NAMES
              2       1        0.03       500   
                                          VAR  

 PROGRAMS   *        TOTAL      FILE
 CPU TIMES  *         0.11      0.00
 REAL TIME  *         0.11 SEC
 DISK USED  *         0.03 MB      
 **********************************************************************************************************************************

 PUNCHFILE INPUT.PUN OPENED

 ZSYMEL=NOSYM
 ZUNIT=ANG
 

Geometry recognized as XYZ

 SETTING BASIS          =    6-31G

 

 TRUNCATING FILE 1 AFTER   1 RECORDS

 TRUNCATING FILE 2 BEFORE RECORD  5101


 **********************************************************************************************************************************
 DATASETS  * FILE   NREC   LENGTH (MB)   RECORD NAMES
              2       2        1.15       500      700   
                                          VAR     GEOM   

 PROGRAMS   *        TOTAL      DATA      FILE
 CPU TIMES  *         0.11      0.00      0.00
 REAL TIME  *         0.11 SEC
 DISK USED  *         0.03 MB      
 **********************************************************************************************************************************


 Recomputing integrals since basis changed


 Using spherical harmonics

 Library entry O      S 6-31G                selected for orbital group  1
 Library entry O      P 6-31G                selected for orbital group  1
 Library entry H      S 6-31G                selected for orbital group  2

1PROGRAM * SEWARD (Integral evaluation for generally contracted gaussian basis sets)     Author: Roland Lindh, 1990

 Geometry written to block  1 of record 700


 Point group  C1  



 ATOMIC COORDINATES

 NR  ATOM    CHARGE       X              Y              Z

   1  O       8.00   -0.098506998   -0.098386055   -0.098480541
   2  H       1.00   -0.100236097   -0.098386055    1.718243573
   3  H       1.00    1.663834579   -0.098386055   -0.539663561

 Bond lengths in Bohr (Angstrom)

 1-2  1.816724937  1-3  1.816725155
     ( 0.961369435)     ( 0.961369550)

 Bond angles

  2-1-3  104.10906087

 NUCLEAR CHARGE:                   10
 NUMBER OF PRIMITIVE AOS:          30
 NUMBER OF SYMMETRY AOS:           30
 NUMBER OF CONTRACTIONS:           13   (  13A   )
 NUMBER OF CORE ORBITALS:           1   (   1A   )
 NUMBER OF VALENCE ORBITALS:        6   (   6A   )


 NUCLEAR REPULSION ENERGY    9.15605692

 EXTRA SYMMETRY OF AOS IN SYMMETRY 1:   1 1 1 1 2 1 1 2 1 1   1 1 1

 Eigenvalues of metric

         1 0.682E-01 0.121E+00 0.322E+00 0.328E+00 0.424E+00 0.498E+00 0.682E+00 0.743E+00


 Contracted 2-electron integrals neglected if value below      1.0D-11
 AO integral compression algorithm  1   Integral accuracy      1.0D-11

     0.262 MB (compressed) written to integral file ( 95.6%)


 NUMBER OF SORTED TWO-ELECTRON INTEGRALS:       4186.     BUFFER LENGTH:  32768
 NUMBER OF SEGMENTS:   1  SEGMENT LENGTH:       4186      RECORD LENGTH: 524288

 Memory used in sort:       0.56 MW

 SORT1 READ        6781. AND WROTE        2280. INTEGRALS IN      1 RECORDS. CPU TIME:     0.00 SEC, REAL TIME:     0.00 SEC
 SORT2 READ        2280. AND WROTE        4186. INTEGRALS IN      1 RECORDS. CPU TIME:     0.00 SEC, REAL TIME:     0.01 SEC

 FILE SIZES:   FILE 1:    16.7 MBYTE,  FILE 4:     4.2 MBYTE,   TOTAL:     20.9 MBYTE

 OPERATOR DM      FOR CENTER  0  COORDINATES:    0.000000    0.000000    0.000000


 **********************************************************************************************************************************
 DATASETS  * FILE   NREC   LENGTH (MB)   RECORD NAMES
              1      19       16.43       500      700      610      900      950      970     1000      129      960     1100   
                                          VAR     GEOM    BASINP   SYMINP    ZMAT    AOBASIS   BASIS     P2S    ABASIS      S 
                                         1400     1410     1200     1210     1080     1600     1650     1300     1700   
                                           T        V       H0       H01     AOSYM     SMH    MOLCAS    ERIS     OPER   

              2       5        1.43       500      700      610     1000      520   
                                          VAR     GEOM    BASINP    BASIS   MCVARS    

 PROGRAMS   *        TOTAL       INT      DATA      FILE
 CPU TIMES  *         0.35      0.23      0.00      0.00
 REAL TIME  *         0.49 SEC
 DISK USED  *        22.37 MB      
 **********************************************************************************************************************************

1PROGRAM * RHF-SCF (OPEN SHELL)       Authors: W. Meyer, H.-J. Werner


 NUMBER OF ELECTRONS:       5+    4-    SPACE SYMMETRY=1    SPIN SYMMETRY: Doublet 
 CONVERGENCE THRESHOLDS:    1.00E-06 (Density)    1.00E-07 (Energy)
 MAX. NUMBER OF ITERATIONS:       60
 INTERPOLATION TYPE:            DIIS
 INTERPOLATION STEPS:              2 (START)      1 (STEP)
 LEVEL SHIFTS:                 -0.60 (CLOSED) -0.30 (OPEN) 



 Orbital guess generated from atomic densities. Full valence occupancy:    5

 Molecular orbital dump at record        2100.2

 Initial alpha occupancy:   5
 Initial beta  occupancy:   4
 Wave function symmetry:    1

 ITERATION    DDIFF          GRAD             ENERGY        2-EL.EN.            DIPOLE MOMENTS         DIIS   ORB.
    1      0.000D+00      0.000D+00       -75.53439643     64.216030    0.96478   -0.09839    0.73225    0    start
    2      0.000D+00      0.302D-01       -75.57491548     66.353768    0.97811   -0.09839    0.74267    1    diag,B
    3      0.247D-01      0.828D-02       -75.57806567     66.233876    0.95676   -0.09839    0.72598    2    diag,B
    4      0.765D-02      0.279D-02       -75.57856606     66.280431    0.94914   -0.09839    0.72003    3    diag,B
    5      0.385D-02      0.329D-03       -75.57857576     66.284727    0.94981   -0.09839    0.72056    4    diag,B
    6      0.397D-03      0.139D-03       -75.57857807     66.283577    0.95049   -0.09839    0.72109    5    diag,B
    7      0.275D-03      0.340D-04       -75.57857822     66.283991    0.95064   -0.09839    0.72120    6    fixocc
    8      0.786D-04      0.488D-05       -75.57857822     66.283887    0.95065   -0.09839    0.72121    7    diag,B
    9      0.781D-05      0.132D-05       -75.57857822     66.283948    0.95066   -0.09839    0.72122    8    diag,B
   10      0.231D-05      0.222D-06       -75.57857822     66.283951    0.95067   -0.09839    0.72122    9    orth
   11      0.510D-06      0.328D-07       -75.57857822     66.283952    0.95067   -0.09839    0.72122    0    orth

 Final alpha occupancy:   5
 Final beta  occupancy:   4

 !RHF STATE 1.1 Energy                -75.578578218508
 Nuclear energy                         9.15605692
 One-electron energy                 -117.87661110
 Two-electron energy                   33.14197596
 Virial quotient                       -0.99855970
 !RHF STATE 1.1 Dipole moment           0.95066584    -0.09838606     0.72122303
 Dipole moment /Debye                   2.41619329    -0.25005603     1.83304604

 ELECTRON ORBITALS
 =================


   Orb  Occ    Energy  Couls-En    Coefficients

                                   1 1s      1 1s      1 1s      1 2px     1 2py     1 2pz     1 2px     1 2py     1 2pz     2 1s   
                                   2 1s      3 1s      3 1s   

   1.1   2   -21.1206  -54.1421  0.995840  0.021899 -0.008324  0.001681 -0.000000  0.001314 -0.001625  0.000000 -0.001270  0.000254
                                 0.001978  0.000254  0.001978

   2.1   2    -1.8484   -9.8274 -0.217243  0.509755  0.471935  0.101877  0.000000  0.079595  0.054976  0.000000  0.042952  0.134391
                                -0.030562  0.134391 -0.030562

   3.1   2    -1.2016   -8.1941  0.000000 -0.000000 -0.000000 -0.354944  0.000000  0.454307 -0.175732 -0.000000  0.224927  0.249418
                                 0.036409 -0.249418 -0.036409

   4.1   2    -1.0623   -8.2670  0.073085 -0.197749 -0.220021  0.489073 -0.000000  0.382105  0.292421 -0.000000  0.228464  0.129772
                                 0.030952  0.129772  0.030952

   5.1   +    -1.1268   -8.6078  0.000000 -0.000000 -0.000000  0.000000  0.730050  0.000000  0.000000  0.409159  0.000000  0.000000
                                 0.000000  0.000000  0.000000

 HOMO      5.1    -1.126803 =     -30.6619eV
 LUMO      6.1    -0.139867 =      -3.8060eV
 LUMO-HOMO         0.986936 =      26.8559eV


 **********************************************************************************************************************************
 DATASETS  * FILE   NREC   LENGTH (MB)   RECORD NAMES
              1      19       16.43       500      700      610      900      950      970     1000      129      960     1100   
                                          VAR     GEOM    BASINP   SYMINP    ZMAT    AOBASIS   BASIS     P2S    ABASIS      S 
                                         1400     1410     1200     1210     1080     1600     1650     1300     1700   
                                           T        V       H0       H01     AOSYM     SMH    MOLCAS    ERIS     OPER   

              2       6        1.57       500      700      610     1000      520     2100   
                                          VAR     GEOM    BASINP    BASIS   MCVARS     RHF  

 PROGRAMS   *        TOTAL        HF       INT      DATA      FILE
 CPU TIMES  *         0.38      0.03      0.23      0.00      0.00
 REAL TIME  *         0.53 SEC
 DISK USED  *        22.37 MB      
 **********************************************************************************************************************************

1PROGRAM * MULTI (Direct Multiconfiguration SCF)       Authors: P.J. Knowles, H.-J. Werner (1984)     S.T. Elbert (1988)


 Number of closed-shell orbitals:   3 (   3 )
 Number of active  orbitals:        2 (   2 )
 Number of external orbitals:       8 (   8 )

 State symmetry 1

 Number of electrons:     3    Spin symmetry=Doublet   Space symmetry=1
 Number of states:        2
 Number of CSFs:          2   (2 determinants, 2 intermediate states)

 Iteration controls:
             1  2  3  4  5  6  7  8  9 10 11 12 13 14 15 16 17 18 19 20 21 22 23 24 25 26 27 28 29 30 31 32 33 34 35 36 37 38 39
 DIAGCI      T  T  T  T  T  T  T  T  T  T  T  T  T  T  T  T  T  T  T  T  T  T  T  T  T  T  T  T  T  T  T  T  T  T  T  T  T  T  T
 WERNER      T  T  T  T  T  T  T  T  T  T  T  T  T  T  T  T  T  T  T  T  T  T  T  T  T  T  T  T  T  T  T  T  T  T  T  T  T  T  T
 INTERNAL    F  T  T  T  T  T  T  T  T  T  T  T  T  T  T  T  T  T  T  T  T  T  T  T  T  T  T  T  T  T  T  T  T  T  T  T  T  T  T

 Molecular orbitals read from record     2100.2  Type=RHF/CANONICAL (state 1.1)

 Wavefunction dump at record             2140.2

 Convergence thresholds  0.10E-05 (gradient)  0.10E-07 (energy)  0.10E-02 (step length)

 Weight factors for state symmetry  1:    0.50000   0.50000

 Number of orbital rotations:       46   (     6 Core/Active     24 Core/Virtual   0 Active/Active     16 Active/Virtual)
 Total number of variables:         50


 ITER. MIC  NCI  NEG     ENERGY(VAR)     ENERGY(PROJ)   ENERGY CHANGE     GRAD(0)  GRAD(ORB)   GRAD(CI)     STEP       TIME

   1   19    7    0     -75.54013436     -75.54194025   -0.00180589    0.06441776 0.00000002 0.00000000  0.28D-01      0.00
   2   17   13    0     -75.54194447     -75.54194453   -0.00000006    0.00048465 0.00000000 0.00000000  0.14D-03      0.00
   3   16   10    0     -75.54194453     -75.54194453   -0.00000000    0.00000003 0.00000000 0.00000000  0.89D-08      0.01

 ** WVFN ****  CONVERGENCE REACHED, FINAL GRADIENT:  0.12D-13

 Solving MCSCF z-vector equations for state  1.1, requested accuracy=      0.10D-08
 Convergence reached in   9 iterations (  9 expansion vectors), accuracy=  0.78D-10

 SA-Gradient information saved on record      5101.2



 Results for state 1.1
 =====================

 !MCSCF STATE 1.1 Energy              -75.577510056834
 Nuclear energy                         9.15605692
 Kinetic energy                        75.62546219
 One electron energy                 -117.83900700
 Two electron energy                   33.10544001
 Virial ratio                           1.99936593

 !MCSCF STATE 1.1 Dipole moment         0.95529131    -0.09838606     0.72483684
 Dipole moment /Debye                   2.42794929    -0.25005603     1.84223083

 Results for state 2.1
 =====================

 !MCSCF STATE 2.1 Energy              -75.506379002027
 Nuclear energy                         9.15605692
 Kinetic energy                        75.69117638
 One electron energy                 -117.96346531
 Two electron energy                   33.30102939
 Virial ratio                           1.99755853

 !MCSCF STATE 2.1 Dipole moment         0.74816782    -0.09838606     0.56301422
 Dipole moment /Debye                   1.90152836    -0.25005603     1.43094567

 State-averaged charge density matrix saved on record  2140.2 (density set 1)

 !MCSCF expec         <1.1|DMX|1.1>     0.955291310870 au =     2.427949289882 Debye
 !MCSCF expec         <2.1|DMX|2.1>     0.748167816782 au =     1.901528359777 Debye

 !MCSCF expec         <1.1|DMY|1.1>    -0.098386055071 au =    -0.250056029847 Debye
 !MCSCF trans         <2.1|DMY|1.1>    -0.196448396419 au =    -0.499289315370 Debye
 !MCSCF expec         <2.1|DMY|2.1>    -0.098386055071 au =    -0.250056029847 Debye

 !MCSCF expec         <1.1|DMZ|1.1>     0.724836844461 au =     1.842230827146 Debye
 !MCSCF expec         <2.1|DMZ|2.1>     0.563014215811 au =     1.430945670622 Debye


 NATURAL ORBITALS (state averaged)
 =================================

   Orb     Occ        Energy       Coefficients

                                   1 1s      1 1s      1 1s      1 2px     1 2py     1 2pz     1 2px     1 2py     1 2pz     2 1s   
                                   2 1s      3 1s      3 1s   

   1.1  2.00000   -21.109249     0.995799  0.021978 -0.008091  0.001062 -0.000000  0.000830 -0.001342  0.000000 -0.001048  0.000181
                                 0.001881  0.000181  0.001881

   2.1  2.00000    -1.832824    -0.214839  0.500481  0.468395  0.112889  0.000000  0.088199  0.063990  0.000000  0.049995  0.137957
                                -0.028819  0.137956 -0.028819

   3.1  2.00000    -1.195015     0.000000 -0.000000 -0.000000 -0.354067  0.000000  0.453186 -0.179284 -0.000000  0.229473  0.246719
                                 0.035023 -0.246719 -0.035023

   4.1  1.50000    -0.852777     0.000000 -0.000000 -0.000000  0.000000  0.707786  0.000000  0.000000  0.435626  0.000000  0.000000
                                 0.000000  0.000000  0.000000

   5.1  1.50000    -0.923389     0.079260 -0.216909 -0.219875  0.494133 -0.000000  0.386059  0.285414 -0.000000  0.222990  0.123701
                                 0.027988  0.123701  0.027988

 Total charge:   1.000000000000
 

 Natural orbital dump (state averaged) at molpro section  2140.2    (Orbital set 2)


 CI vector
 =========

 a2      1.0000000   0.0000000
 2a      0.0000000   1.0000000

 TOTAL ENERGIES                       -75.57751006   -75.50637900



 **********************************************************************************************************************************
 DATASETS  * FILE   NREC   LENGTH (MB)   RECORD NAMES
              1      20       16.46       500      700      610      900      950      970     1000      129      960     1100   
                                          VAR     GEOM    BASINP   SYMINP    ZMAT    AOBASIS   BASIS     P2S    ABASIS      S 
                                         1400     1410     1200     1210     1080     1600     1650     1300     1700     1380   
                                           T        V       H0       H01     AOSYM     SMH    MOLCAS    ERIS     OPER     JKOP   

              2       8        1.70       500      700      610     1000      520     2100     2140     5101   
                                          VAR     GEOM    BASINP    BASIS   MCVARS     RHF     MCSCF   CPSAMC    

 PROGRAMS   *        TOTAL     MULTI        HF       INT      DATA      FILE
 CPU TIMES  *         0.39      0.01      0.03      0.23      0.00      0.00
 REAL TIME  *         0.57 SEC
 DISK USED  *        22.37 MB      
 **********************************************************************************************************************************

1PROGRAM * FORCE (Gradient of the energy)

 SA-MCSCF information from    5101.2
 Orbitals from record         2140.2

 Number of closed-shell orbitals:  3 (  3 )
 Number of active orbitals:        2 (  2 )
 Number of occupied orbitals:      5 (  5 )

 Number of electrons=  9     Doublet     Space symmetry=1      Wavefunction type: SA-MCSCF


 End of calculation of the energy gradient  ,IREST=   0


 SA-MC GRADIENT FOR STATE 1.1

 Atom          dE/dx               dE/dy               dE/dz

   1        -0.001896732         0.000000000        -0.001481769
   2         0.025734608         0.000000000        -0.030984114
   3        -0.023837876         0.000000000         0.032465882

 Nuclear force contribution to virial =        -0.112667960


 **********************************************************************************************************************************
 DATASETS  * FILE   NREC   LENGTH (MB)   RECORD NAMES
              1      20       16.46       500      700      610      900      950      970     1000      129      960     1100   
                                          VAR     GEOM    BASINP   SYMINP    ZMAT    AOBASIS   BASIS     P2S    ABASIS      S 
                                         1400     1410     1200     1210     1080     1600     1650     1300     1700     1380   
                                           T        V       H0       H01     AOSYM     SMH    MOLCAS    ERIS     OPER     JKOP   

              2       8        1.70       500      700      610     1000      520     2100     2140     5101   
                                          VAR     GEOM    BASINP    BASIS   MCVARS     RHF     MCSCF   CPSAMC    

 PROGRAMS   *        TOTAL    FORCES     MULTI        HF       INT      DATA      FILE
 CPU TIMES  *         0.40      0.01      0.01      0.03      0.23      0.00      0.00
 REAL TIME  *         0.58 SEC
 DISK USED  *        22.37 MB      
 **********************************************************************************************************************************

 MULTI/6-31G energy=    -75.506379002027

        MULTI           HF-SCF  
    -75.57751006    -75.57857822
 **********************************************************************************************************************************
 Variable memory released
