 Entering Gaussian System, Link 0=/home/slavicek/G03/g09-altix/g09//g09
 Input=input.com
 Output=input.log
 Initial command:
 /home/slavicek/G03/g09-altix/g09/l1.exe "/home/chalabaj/snafu/ABINITIO/scratch/Gau-29829.inp" -scrdir="/home/chalabaj/snafu/ABINITIO/scratch/"
 Entering Link 1 = /home/slavicek/G03/g09-altix/g09/l1.exe PID=     29831.
  
 Copyright (c) 1988,1990,1992,1993,1995,1998,2003,2009,2013,
            Gaussian, Inc.  All Rights Reserved.
  
 This is part of the Gaussian(R) 09 program.  It is based on
 the Gaussian(R) 03 system (copyright 2003, Gaussian, Inc.),
 the Gaussian(R) 98 system (copyright 1998, Gaussian, Inc.),
 the Gaussian(R) 94 system (copyright 1995, Gaussian, Inc.),
 the Gaussian 92(TM) system (copyright 1992, Gaussian, Inc.),
 the Gaussian 90(TM) system (copyright 1990, Gaussian, Inc.),
 the Gaussian 88(TM) system (copyright 1988, Gaussian, Inc.),
 the Gaussian 86(TM) system (copyright 1986, Carnegie Mellon
 University), and the Gaussian 82(TM) system (copyright 1983,
 Carnegie Mellon University). Gaussian is a federally registered
 trademark of Gaussian, Inc.
  
 This software contains proprietary and confidential information,
 including trade secrets, belonging to Gaussian, Inc.
  
 This software is provided under written license and may be
 used, copied, transmitted, or stored only in accord with that
 written license.
  
 The following legend is applicable only to US Government
 contracts under FAR:
  
                    RESTRICTED RIGHTS LEGEND
  
 Use, reproduction and disclosure by the US Government is
 subject to restrictions as set forth in subparagraphs (a)
 and (c) of the Commercial Computer Software - Restricted
 Rights clause in FAR 52.227-19.
  
 Gaussian, Inc.
 340 Quinnipiac St., Bldg. 40, Wallingford CT 06492
  
  
 ---------------------------------------------------------------
 Warning -- This program may not be used in any manner that
 competes with the business of Gaussian, Inc. or will provide
 assistance to any competitor of Gaussian, Inc.  The licensee
 of this program is prohibited from giving any competitor of
 Gaussian, Inc. access to this program.  By using this program,
 the user acknowledges that Gaussian, Inc. is engaged in the
 business of creating and licensing software in the field of
 computational chemistry and represents and warrants to the
 licensee that it is not a competitor of Gaussian, Inc. and that
 it will not use this program in any manner prohibited above.
 ---------------------------------------------------------------
  

 Cite this work as:
 Gaussian 09, Revision D.01,
 M. J. Frisch, G. W. Trucks, H. B. Schlegel, G. E. Scuseria, 
 M. A. Robb, J. R. Cheeseman, G. Scalmani, V. Barone, B. Mennucci, 
 G. A. Petersson, H. Nakatsuji, M. Caricato, X. Li, H. P. Hratchian, 
 A. F. Izmaylov, J. Bloino, G. Zheng, J. L. Sonnenberg, M. Hada, 
 M. Ehara, K. Toyota, R. Fukuda, J. Hasegawa, M. Ishida, T. Nakajima, 
 Y. Honda, O. Kitao, H. Nakai, T. Vreven, J. A. Montgomery, Jr., 
 J. E. Peralta, F. Ogliaro, M. Bearpark, J. J. Heyd, E. Brothers, 
 K. N. Kudin, V. N. Staroverov, T. Keith, R. Kobayashi, J. Normand, 
 K. Raghavachari, A. Rendell, J. C. Burant, S. S. Iyengar, J. Tomasi, 
 M. Cossi, N. Rega, J. M. Millam, M. Klene, J. E. Knox, J. B. Cross, 
 V. Bakken, C. Adamo, J. Jaramillo, R. Gomperts, R. E. Stratmann, 
 O. Yazyev, A. J. Austin, R. Cammi, C. Pomelli, J. W. Ochterski, 
 R. L. Martin, K. Morokuma, V. G. Zakrzewski, G. A. Voth, 
 P. Salvador, J. J. Dannenberg, S. Dapprich, A. D. Daniels, 
 O. Farkas, J. B. Foresman, J. V. Ortiz, J. Cioslowski, 
 and D. J. Fox, Gaussian, Inc., Wallingford CT, 2013.
 
 ******************************************
 Gaussian 09:  ES64L-G09RevD.01 24-Apr-2013
                19-Jul-2018 
 ******************************************
 %chk=/home/chalabaj/snafu/ABINITIO/checkpoint.chk
 %Mem=500Mb
 %Nproc=2
 Will use up to    2 processors via shared memory.
 --------------------------------------
 #BLYP/6-31g* Force guess=(Read,TCheck)
 --------------------------------------
 1/10=7,30=1,38=1/1,3;
 2/12=2,17=6,18=5,40=1/2;
 3/5=1,6=6,7=1,11=2,16=1,25=1,30=1,71=1,74=402/1,2,3;
 4/5=102/1;
 5/5=2/2;
 6/7=2,8=2,9=2,10=2,28=1/1;
 7/29=1/1,2,3,16;
 1/10=7,30=1/3;
 99//99;
 -------
 comment
 -------
 Symbolic Z-matrix:
 Charge =  0 Multiplicity = 1
 O                    -0.05219  -0.05206  -0.05216 
 H                    -0.05298  -0.05206   0.9102 
 H                     0.8814   -0.05206  -0.28575 
 

 GradGradGradGradGradGradGradGradGradGradGradGradGradGradGradGradGradGrad
 Berny optimization.
 Initialization pass.
 Trust Radius=3.00D-01 FncErr=1.00D-07 GrdErr=1.00D-07
 Number of steps in this run=      2 maximum allowed number of steps=      2.
 GradGradGradGradGradGradGradGradGradGradGradGradGradGradGradGradGradGrad

                          Input orientation:                          
 ---------------------------------------------------------------------
 Center     Atomic      Atomic             Coordinates (Angstroms)
 Number     Number       Type             X           Y           Z
 ---------------------------------------------------------------------
      1          8           0       -0.052190   -0.052064   -0.052163
      2          1           0       -0.052979   -0.052064    0.910202
      3          1           0        0.881397   -0.052064   -0.285745
 ---------------------------------------------------------------------
                    Distance matrix (angstroms):
                    1          2          3
     1  O    0.000000
     2  H    0.962365   0.000000
     3  H    0.962365   1.517679   0.000000
 Stoichiometry    H2O
 Framework group  C2V[C2(O),SGV(H2)]
 Deg. of freedom     2
 Full point group                 C2V     NOp   4
 Largest Abelian subgroup         C2V     NOp   4
 Largest concise Abelian subgroup C2      NOp   2
                         Standard orientation:                         
 ---------------------------------------------------------------------
 Center     Atomic      Atomic             Coordinates (Angstroms)
 Number     Number       Type             X           Y           Z
 ---------------------------------------------------------------------
      1          8           0        0.000000    0.000000    0.118374
      2          1           0        0.000000   -0.758840   -0.473496
      3          1           0        0.000000    0.758840   -0.473496
 ---------------------------------------------------------------------
 Rotational constants (GHZ):    805.9269936    435.4137623    282.6876526
 Standard basis: 6-31G(d) (6D, 7F)
 There are    10 symmetry adapted cartesian basis functions of A1  symmetry.
 There are     1 symmetry adapted cartesian basis functions of A2  symmetry.
 There are     3 symmetry adapted cartesian basis functions of B1  symmetry.
 There are     5 symmetry adapted cartesian basis functions of B2  symmetry.
 There are    10 symmetry adapted basis functions of A1  symmetry.
 There are     1 symmetry adapted basis functions of A2  symmetry.
 There are     3 symmetry adapted basis functions of B1  symmetry.
 There are     5 symmetry adapted basis functions of B2  symmetry.
    19 basis functions,    36 primitive gaussians,    19 cartesian basis functions
     5 alpha electrons        5 beta electrons
       nuclear repulsion energy         9.1466192964 Hartrees.
 NAtoms=    3 NActive=    3 NUniq=    2 SFac= 2.25D+00 NAtFMM=   60 NAOKFM=F Big=F
 Integral buffers will be    131072 words long.
 Raffenetti 2 integral format.
 Two-electron integral symmetry is turned on.
 One-electron integrals computed using PRISM.
 NBasis=    19 RedAO= T EigKep=  4.19D-02  NBF=    10     1     3     5
 NBsUse=    19 1.00D-06 EigRej= -1.00D+00 NBFU=    10     1     3     5
 Initial guess from the checkpoint file:  "/home/chalabaj/snafu/ABINITIO/checkpoint.chk"
 B after Tr=     0.000000    0.000000    0.000000
         Rot=    1.000000    0.000000    0.000000    0.000000 Ang=   0.00 deg.
 Initial guess orbital symmetries:
       Occupied  (A1) (A1) (B2) (A1) (B1)
       Virtual   (A1) (B2) (B2) (A1) (B1) (A1) (B2) (A1) (A1) (A2)
                 (B1) (A1) (B2) (A1)
 Keep J ints in memory in symmetry-blocked form, NReq=898557.
 Requested convergence on RMS density matrix=1.00D-08 within 128 cycles.
 Requested convergence on MAX density matrix=1.00D-06.
 Requested convergence on             energy=1.00D-06.
 No special actions if energy rises.
 SCF Done:  E(RB-LYP) =  -76.3880128048     A.U. after    6 cycles
            NFock=  6  Conv=0.17D-08     -V/T= 2.0071

 **********************************************************************

            Population analysis using the SCF density.

 **********************************************************************

 Orbital symmetries:
       Occupied  (A1) (A1) (B2) (A1) (B1)
       Virtual   (A1) (B2) (B2) (A1) (B1) (A1) (B2) (A1) (A1) (A2)
                 (B1) (A1) (B2) (A1)
 The electronic state is 1-A1.
 Alpha  occ. eigenvalues --  -18.78183  -0.90064  -0.45887  -0.30629  -0.22399
 Alpha virt. eigenvalues --    0.03859   0.12245   0.72922   0.80484   0.83695
 Alpha virt. eigenvalues --    0.84951   1.00753   1.14837   1.67256   1.68840
 Alpha virt. eigenvalues --    1.72330   2.22194   2.51662   3.46770
          Condensed to atoms (all electrons):
               1          2          3
     1  O    8.269480   0.235664   0.235664
     2  H    0.235664   0.419097  -0.025164
     3  H    0.235664  -0.025164   0.419097
 Mulliken charges:
               1
     1  O   -0.740808
     2  H    0.370404
     3  H    0.370404
 Sum of Mulliken charges =   0.00000
 Mulliken charges with hydrogens summed into heavy atoms:
               1
     1  O    0.000000
 Electronic spatial extent (au):  <R**2>=             19.1833
 Charge=              0.0000 electrons
 Dipole moment (field-independent basis, Debye):
    X=              0.0000    Y=              0.0000    Z=             -2.0166  Tot=              2.0166
 Quadrupole moment (field-independent basis, Debye-Ang):
   XX=             -7.1911   YY=             -4.3556   ZZ=             -6.0316
   XY=              0.0000   XZ=              0.0000   YZ=              0.0000
 Traceless Quadrupole moment (field-independent basis, Debye-Ang):
   XX=             -1.3316   YY=              1.5038   ZZ=             -0.1722
   XY=              0.0000   XZ=              0.0000   YZ=              0.0000
 Octapole moment (field-independent basis, Debye-Ang**2):
  XXX=              0.0000  YYY=              0.0000  ZZZ=             -1.1174  XYY=              0.0000
  XXY=              0.0000  XXZ=             -0.3039  XZZ=              0.0000  YZZ=              0.0000
  YYZ=             -1.1165  XYZ=              0.0000
 Hexadecapole moment (field-independent basis, Debye-Ang**3):
 XXXX=             -5.2133 YYYY=             -6.2264 ZZZZ=             -6.3316 XXXY=              0.0000
 XXXZ=              0.0000 YYYX=              0.0000 YYYZ=              0.0000 ZZZX=              0.0000
 ZZZY=              0.0000 XXYY=             -2.1301 XXZZ=             -1.9701 YYZZ=             -1.8040
 XXYZ=              0.0000 YYXZ=              0.0000 ZZXY=              0.0000
 N-N= 9.146619296427D+00 E-N=-1.988753453299D+02  KE= 7.584909214220D+01
 Symmetry A1   KE= 6.766474867457D+01
 Symmetry A2   KE= 6.284184265471D-35
 Symmetry B1   KE= 4.605045898963D+00
 Symmetry B2   KE= 3.579297568661D+00
 Calling FoFJK, ICntrl=      2527 FMM=F ISym2X=1 I1Cent= 0 IOpClX= 0 NMat=1 NMatS=1 NMatT=0.
 ***** Axes restored to original set *****
 -------------------------------------------------------------------
 Center     Atomic                   Forces (Hartrees/Bohr)
 Number     Number              X              Y              Z
 -------------------------------------------------------------------
      1        8          -0.016555336    0.000000000   -0.012934451
      2        1           0.001132925    0.000000000    0.015612076
      3        1           0.015422411    0.000000000   -0.002677625
 -------------------------------------------------------------------
 Cartesian Forces:  Max     0.016555336 RMS     0.010173058

 GradGradGradGradGradGradGradGradGradGradGradGradGradGradGradGradGradGrad
 Berny optimization.
 Search for a local minimum.
 Step number   1 out of a maximum of    2
 All quantities printed in internal units (Hartrees-Bohrs-Radians)
 Second derivative matrix not updated -- first step.
 The second derivative matrix:
                          X1        Y1        Z1        X2        Y2
           X1           0.59201
           Y1           0.00000   1.00000
           Z1          -0.07151   0.00000   0.62766
           X2          -0.06012   0.00000  -0.04652   0.04838
           Y2           0.00000   0.00000   0.00000   0.00000   1.00000
           Z2           0.00040   0.00000  -0.54972  -0.00041   0.00000
           X3          -0.53189   0.00000   0.11803   0.01174   0.00000
           Y3           0.00000   0.00000   0.00000   0.00000   0.00000
           Z3           0.07110   0.00000  -0.07795   0.04693   0.00000
                          Z2        X3        Y3        Z3
           Z2           0.54968
           X3           0.00001   0.52015
           Y3           0.00000   0.00000   1.00000
           Z3           0.00004  -0.11804   0.00000   0.07791
 ITU=  0
     Eigenvalues ---    0.14435   0.85899   0.98599
 Angle between quadratic step and forces=  23.92 degrees.
 ClnCor:  largest displacement from symmetrization is 1.00D-14 for atom     3.
 Linear search not attempted -- first point.
 ClnCor:  largest displacement from symmetrization is 3.14D-16 for atom     3.
 TrRot= -0.005332  0.000000 -0.004166  0.000000  0.000000  0.000000
 Variable       Old X    -DE/DX   Delta X   Delta X   Delta X     New X
                                 (Linear)    (Quad)   (Total)
    X1       -0.09863  -0.01656   0.00000  -0.00875  -0.01408  -0.11271
    Y1       -0.09839   0.00000   0.00000   0.00000   0.00000  -0.09839
    Z1       -0.09857  -0.01293   0.00000  -0.00684  -0.01100  -0.10957
    X2       -0.10012   0.00113   0.00000   0.00307  -0.00226  -0.10238
    Y2       -0.09839   0.00000   0.00000   0.00000   0.00000  -0.09839
    Z2        1.72003   0.01561   0.00000   0.02157   0.01741   1.73744
    X3        1.66560   0.01542   0.00000   0.02168   0.01634   1.68194
    Y3       -0.09839   0.00000   0.00000   0.00000   0.00000  -0.09839
    Z3       -0.53998  -0.00268   0.00000  -0.00224  -0.00641  -0.54639
         Item               Value     Threshold  Converged?
 Maximum Force            0.016555     0.000450     NO 
 RMS     Force            0.010173     0.000300     NO 
 Maximum Displacement     0.017409     0.001800     NO 
 RMS     Displacement     0.010196     0.001200     NO 
 Predicted change in Energy=-4.569320D-04
 GradGradGradGradGradGradGradGradGradGradGradGradGradGradGradGradGradGrad

 1\1\GINC-403-AS67-01\Force\RBLYP\6-31G(d)\H2O1\CHALABAJ\19-Jul-2018\0\
 \#BLYP/6-31g* Force guess=(Read,TCheck)\\comment\\0,1\O,-0.0521904607,
 -0.0520636582,-0.052162761\H,-0.0529794768,-0.0520636582,0.9102021387\
 H,0.8813972996,-0.0520636582,-0.2857451159\\Version=ES64L-G09RevD.01\S
 tate=1-A1\HF=-76.3880128\RMSD=1.740e-09\RMSF=1.017e-02\Dipole=0.625206
 7,0.,0.4884652\Quadrupole=0.3442921,-0.9900321,0.64574,0.,-0.6045216,0
 .\PG=C02V [C2(O1),SGV(H2)]\\@


 YOU KNOW YOU'VE SPOKEN TOO LONG WHEN THE AUDIENCE STOPS LOOKING AT
 THEIR WATCHES AND STARTS SHAKING THEM.
 Job cpu time:       0 days  0 hours  0 minutes  1.2 seconds.
 File lengths (MBytes):  RWF=      5 Int=      0 D2E=      0 Chk=      1 Scr=      1
 Normal termination of Gaussian 09 at Thu Jul 19 14:56:51 2018.
