
 Nodes     nprocs
 n01          4

 Using customized tuning parameters: mindgm=1; mindgv=20; mindgc=4; mindgr=1; noblas=0; minvec=7
 default implementation of scratch files=sf


 Variables initialized (889), CPU time= 0.01 sec
 Commands  initialized (702), CPU time= 0.02 sec, 572 directives.
 Default parameters read. Elapsed time= 0.11 sec

 Checking input...
 Passed
1


                                         ***  PROGRAM SYSTEM MOLPRO  ***
                                       Copyright, TTI GmbH Stuttgart, 2015
                                    Version 2015.1 linked Nov 26 2015 20:23:21


 **********************************************************************************************************************************
 LABEL *   gradients
  64 bit mpp version                                                                     DATE: 16-Jul-18          TIME: 08:54:09
 **********************************************************************************************************************************

 SHA1:             41aa48e1468dac041f2eaabdf410f3ce2ee7f8bf
 **********************************************************************************************************************************

 Variable memory set to 1000000000 words,  buffer space   230000 words



 Temporary file  2  input.wfu        assigned.  Implementation=df    Size=  1.73 MB


 PROGRAM * RESTART


 Warning: Setting new file length=   226939. old file length=        0.

 Reading variables from file 2

 _NUMVAR         =    896.00000000
 _DKROLL_DONE    =      0.00000000
 _FOCKDONE       =      1.00000000
 _GRADONE        =      1.00000000
 _INTDONE        =      1.00000000
 _SCFDONE        =      1.00000000
 _DIRECT         =      0.00000000
 _DKHO           =     -1.00000000
 _BASIS          =    6-31G
 _ZUNIT          =    ANG
 _ZORIENT        =      0.00000000
 _NELEC          =      9.00000000
 _PROGRAM        =    POP
 _CPUSTEP        =      0.00000000
 _SYSSTEP        =      0.00000000
 _WALLSTEP       =      0.00000000
 _ATCHARGE(1:3)  =     -0.18473012     0.59236503     0.59236510
 _BASINP         =    610.00000000
 _CPUTOT         =      0.75000000
 _DFTEXFAC       =      1.00000000
 _DMX_SCF        =      1.04905190
 _DMY_SCF        =      0.00000000
 _DMZ_SCF        =      0.81960909
 _EHOMO          =     -1.12680293
 _ELUMO          =     -0.13986690
 _EIGS(1:13)     =    -21.12062114    -1.84839858    -1.20162501    -1.06228365    -1.12680293    -0.13986690
                       -0.04678565     0.64548114     0.65281685     0.72604476     0.78812453     0.92290387
                        1.22726361
 _ENERGY_METHOD  =    POP
 _ENERGY_BASIS   =    6-31G
 _GEOMETRY_METHOD=
 _GEOMETRY_BASIS =
 _ENUC           =      9.15605692
 _EPS1(1:5)      =    -21.10924909    -1.83282388    -1.19501529    -0.85277694    -0.92338916
 _GRADENERG      =    -75.50637900
 _GRADEXFAC      =   9999.00000000
 _GRADMETHOD     =      5.00000000
 _VIRIAL         =     -0.12091060
 _LASTNELEC      =      3.00000000
 _LASTSPIN       =      1.00000000
 _LASTSYM        =     -9.00000000
 _ORBITAL        =   2101.20000000
 _SEIG_MIN       =      0.06822641
 _SEWPROP        =      1.00000000
 _STATUS         =      0.00000000
 _SYSTOT         =      0.56000000
 _WALLTOT        =      1.68000000
 _LASTORB        =    MCSCF
 _OUTPUT         =    /home/chalabaj/snafu/ABINITIO/input.com.out
 _PGROUP         =    C1
 _TIME           =    08:53:24
 _DMX_CC(1:2)    =     -1.12033550    -1.12033550
 _DMY_CC(1:2)    =      0.00000000     0.00000000
 _DMZ_CC(1:2)    =     -0.87530205    -0.87530205
 _DMX_NUC(1:2)   =      1.75940305     1.75940305
 _DMY_NUC(1:2)   =      0.00000000     0.00000000
 _DMZ_NUC(1:2)   =      1.37459623     1.37459623
 _TRDMX          =      0.00000000
 _TRDMY          =      0.19644840
 _TRDMZ          =      0.00000000

 Geometry written to block  1 of record 700


 **********************************************************************************************************************************
 DATASETS  * FILE   NREC   LENGTH (MB)   RECORD NAMES
              2      10        1.82       500      700      610     1000      520     2100     2501     2101     3000     5100
                                          VAR     GEOM    BASINP    BASIS   MCVARS     RHF    MCVECT    MCSCF    MCSCF   CPSAMC

 PROGRAMS   *        TOTAL   RESTART
 CPU TIMES  *         0.23      0.02
 REAL TIME  *         0.29 SEC
 DISK USED  *         0.13 MB
 **********************************************************************************************************************************

 PUNCHFILE INPUT.PUN OPENED

 ZSYMEL=NOSYM
 ZUNIT=ANG


Geometry recognized as XYZ

 SETTING BASIS          =    6-31G



 TRUNCATING FILE 1 AFTER   1 RECORDS

 TRUNCATING FILE 2 BEFORE RECORD  3000


 **********************************************************************************************************************************
 DATASETS  * FILE   NREC   LENGTH (MB)   RECORD NAMES
              2       8        1.70       500      700      610     1000      520     2100     2501     2101
                                          VAR     GEOM    BASINP    BASIS   MCVARS     RHF    MCVECT    MCSCF

 PROGRAMS   *        TOTAL      DATA   RESTART
 CPU TIMES  *         0.24      0.00      0.02
 REAL TIME  *         0.32 SEC
 DISK USED  *        11.87 MB
 **********************************************************************************************************************************



 COPYING RECORD   2101.2 TO   3000.2  LENGTH=      14592. WORDS


 **********************************************************************************************************************************
 DATASETS  * FILE   NREC   LENGTH (MB)   RECORD NAMES
              2       9        1.81       500      700      610     1000      520     2100     2501     2101     3000
                                          VAR     GEOM    BASINP    BASIS   MCVARS     RHF    MCVECT    MCSCF    MCSCF

 PROGRAMS   *        TOTAL      DATA      DATA   RESTART
 CPU TIMES  *         0.24      0.00      0.00      0.02
 REAL TIME  *         0.32 SEC
 DISK USED  *        11.87 MB
 **********************************************************************************************************************************


 Recomputing integrals since basis changed


 Using spherical harmonics

 Library entry O      S 6-31G                selected for orbital group  1
 Library entry O      P 6-31G                selected for orbital group  1
 Library entry H      S 6-31G                selected for orbital group  2

1PROGRAM * SEWARD (Integral evaluation for generally contracted gaussian basis sets)     Author: Roland Lindh, 1990

 Geometry written to block  1 of record 700


 Point group  C1



 ATOMIC COORDINATES

 NR  ATOM    CHARGE       X              Y              Z

   1  O       8.00   -0.000120942    0.000000000   -0.000094486
   2  H       1.00   -0.001850042    0.000000000    1.816629628
   3  H       1.00    1.762220634    0.000000000   -0.441277506

 Bond lengths in Bohr (Angstrom)

 1-2  1.816724937  1-3  1.816725155
     ( 0.961369435)     ( 0.961369550)

 Bond angles

  2-1-3  104.10906087

 NUCLEAR CHARGE:                   10
 NUMBER OF PRIMITIVE AOS:          30
 NUMBER OF SYMMETRY AOS:           30
 NUMBER OF CONTRACTIONS:           13   (  13A   )
 NUMBER OF CORE ORBITALS:           1   (   1A   )
 NUMBER OF VALENCE ORBITALS:        6   (   6A   )


 NUCLEAR REPULSION ENERGY    9.15605692

 EXTRA SYMMETRY OF AOS IN SYMMETRY 1:   1 1 1 1 2 1 1 2 1 1   1 1 1

 Eigenvalues of metric

         1 0.682E-01 0.121E+00 0.322E+00 0.328E+00 0.424E+00 0.498E+00 0.682E+00 0.743E+00


 Contracted 2-electron integrals neglected if value below      1.0D-11
 AO integral compression algorithm  1   Integral accuracy      1.0D-11

     1.049 MB (compressed) written to integral file ( 96.2%)

     Node minimum: 0.262 MB, node maximum: 0.262 MB


 NUMBER OF SORTED TWO-ELECTRON INTEGRALS:       1081.     BUFFER LENGTH:  32768
 NUMBER OF SEGMENTS:   1  SEGMENT LENGTH:       1081      RECORD LENGTH: 524288

 Memory used in sort:       0.56 MW

 SORT1 READ        6781. AND WROTE         547. INTEGRALS IN      1 RECORDS. CPU TIME:     0.00 SEC, REAL TIME:     0.00 SEC
 SORT2 READ        2280. AND WROTE        4186. INTEGRALS IN      4 RECORDS. CPU TIME:     0.01 SEC, REAL TIME:     0.00 SEC

 Node minimum:        1012.  Node maximum:        1081. integrals

 OPERATOR DM      FOR CENTER  0  COORDINATES:    0.000000    0.000000    0.000000


 **********************************************************************************************************************************
 DATASETS  * FILE   NREC   LENGTH (MB)   RECORD NAMES
              1      18       16.41       500      700      610      900      950      970     1000      129      960     1100
                                          VAR     GEOM    BASINP   SYMINP    ZMAT    AOBASIS   BASIS     P2S    ABASIS      S
                                         1400     1410     1200     1210     1080     1600     1650     1700
                                           T        V       H0       H01     AOSYM     SMH    MOLCAS    OPER

              2       9        1.81       500      700      610     1000      520     2100     2501     2101     3000
                                          VAR     GEOM    BASINP    BASIS   MCVARS     RHF    MCVECT    MCSCF    MCSCF

 PROGRAMS   *        TOTAL       INT      DATA      DATA   RESTART
 CPU TIMES  *         0.50      0.26      0.00      0.00      0.02
 REAL TIME  *         1.10 SEC
 DISK USED  *        28.67 MB
 GA USED    *         0.00 MB       (max)       0.00 MB       (current)
 **********************************************************************************************************************************

1PROGRAM * MULTI (Direct Multiconfiguration SCF)       Authors: P.J. Knowles, H.-J. Werner (1984)     S.T. Elbert (1988)


 Number of closed-shell orbitals:   3 (   3 )
 Number of active  orbitals:        2 (   2 )
 Number of external orbitals:       8 (   8 )

 State symmetry 1

 Number of electrons:     3    Spin symmetry=Doublet   Space symmetry=1
 Number of states:        1
 Number of CSFs:          2   (2 determinants, 2 intermediate states)
 CI vector dump at record                2501.2

 Iteration controls:
             1  2
 DIAGCI      T  T
 WERNER      T  T
 INTERNAL    F  T

 Molecular orbitals read from record     2101.2  Type=MCSCF/DIABATIC (state averaged)
 Diabatic orbitals read from record      3000.2  Type=MCSCF/DIABATIC (state averaged)

 EXTRA SYMMETRY OF MOS IN SYMMETRY 1:   1 1 1 2 1 1 1 1 2 1   1 1 1

 Wavefunction dump at record             2101.2

 Convergence thresholds  0.10E-01 (gradient)  0.10E-05 (energy)  0.10E-02 (step length)

 CI vector restored from record          2501.2

 Number of orbital rotations:       46   (     6 Core/Active     24 Core/Virtual   0 Active/Active     16 Active/Virtual)
 Total number of variables:         48


 ITER. MIC  NCI  NEG     ENERGY(VAR)     ENERGY(PROJ)   ENERGY CHANGE     GRAD(0)  GRAD(ORB)   GRAD(CI)     STEP       TIME

   1   36    4    0     -75.57751006     -75.57857720   -0.00106714    0.04751221 0.00003287 0.00000000  0.28D-01      0.02
   2   21    5    0     -75.57857818     -75.57857822   -0.00000004    0.00034554 0.00000000 0.00000000  0.14D-03      0.03

 ** WVFN ****  CONVERGENCE REACHED, FINAL GRADIENT:  0.17D-07


 First order charge density matrix for state 1.1 saved on record  2101.2 (density set 1)

 Results for state 1.1
 =====================

 !MCSCF STATE 1.1 Energy              -75.578578218508
 Nuclear energy                         9.15605692
 Kinetic energy                        75.68759104
 One electron energy                 -117.87661116
 Two electron energy                   33.14197601
 Virial ratio                           1.99855970

 !MCSCF STATE 1.1 Dipole moment         1.04905209     0.00000000     0.81960924
 Dipole moment /Debye                   2.66624980     0.00000000     2.08310244


 Generating diabatic active orbitals

 Neighboring orbitals from record    3000.2 Type=DIABATIC (state averaged)

 Using overlap matrix of current geometry

 Transforming all active orbitals using Jacobi rotations

 Diagonal elements of S(R+DR|R) for symmetry 1:                0.9997    0.9999


 DIABATIC ORBITALS
 =================

   Orb     Occ        Energy       Coefficients

                                   1 1s      1 1s      1 1s      1 2px     1 2py     1 2pz     1 2px     1 2py     1 2pz     2 1s
                                   2 1s      3 1s      3 1s

   1.1  2.00000   -21.120616     0.995798  0.022009 -0.008202  0.001428  0.000000  0.001115 -0.001777  0.000000 -0.001388  0.000189
                                 0.001961  0.000189  0.001961

   2.1  2.00000    -1.847848    -0.215232  0.504341  0.465944  0.114790  0.000000  0.089684  0.062699  0.000000  0.048986  0.137780
                                -0.029732  0.137780 -0.029732

   3.1  2.00000    -1.201625     0.000000 -0.000000 -0.000000 -0.354944  0.000000  0.454307 -0.175732  0.000000  0.224927  0.249418
                                 0.036409 -0.249418 -0.036409

   4.1  1.00000    -0.703988    -0.000000  0.000000  0.000000 -0.000000  0.730050 -0.000000 -0.000000  0.409159 -0.000000 -0.000000
                                -0.000000 -0.000000 -0.000000

   5.1  2.00000    -1.062840     0.079330 -0.211163 -0.232443  0.486205  0.000000  0.379865  0.290862  0.000000  0.227246  0.126168
                                 0.031752  0.126168  0.031752

 Total charge:   1.000000000000


 Diabatic orbital dump at molpro section  2101.2    (Orbital set 2)


 CI vector
 =========

 a2      1.0000000

 TOTAL ENERGIES                       -75.57857822



 **********************************************************************************************************************************
 DATASETS  * FILE   NREC   LENGTH (MB)   RECORD NAMES
              1      19       16.44       500      700      610      900      950      970     1000      129      960     1100
                                          VAR     GEOM    BASINP   SYMINP    ZMAT    AOBASIS   BASIS     P2S    ABASIS      S
                                         1400     1410     1200     1210     1080     1600     1650     1700     1380
                                           T        V       H0       H01     AOSYM     SMH    MOLCAS    OPER     JKOP

              2       9        1.81       500      700      610     1000      520     2100     2501     2101     3000
                                          VAR     GEOM    BASINP    BASIS   MCVARS     RHF    MCVECT    MCSCF    MCSCF

 PROGRAMS   *        TOTAL     MULTI       INT      DATA      DATA   RESTART
 CPU TIMES  *         0.54      0.04      0.26      0.00      0.00      0.02
 REAL TIME  *         1.15 SEC
 DISK USED  *        28.67 MB
 SF USED    *         3.24 MB
 GA USED    *         0.00 MB       (max)       0.00 MB       (current)
 **********************************************************************************************************************************

 *** Calculating gradients.

1PROGRAM * MULTI (Direct Multiconfiguration SCF)       Authors: P.J. Knowles, H.-J. Werner (1984)     S.T. Elbert (1988)


 Number of closed-shell orbitals:   3 (   3 )
 Number of active  orbitals:        2 (   2 )
 Number of external orbitals:       8 (   8 )

 State symmetry 1

 Number of electrons:     3    Spin symmetry=Doublet   Space symmetry=1
 Number of states:        1
 Number of CSFs:          2   (2 determinants, 2 intermediate states)
 CI vector dump at record                2501.2

 Molecular orbitals read from record     2101.2  Type=MCSCF/DIABATIC (state averaged)
 Diabatic orbitals read from record      3000.2  Type=MCSCF/DIABATIC (state averaged)

 EXTRA SYMMETRY OF MOS IN SYMMETRY 1:   1 1 1 2 1 1 1 1 2 1   1 1 1

 Wavefunction dump at record             2101.2

 Convergence thresholds  0.10E-04 (gradient)  0.10E-07 (energy)  0.10E-02 (step length)

 CI vector restored from record          2501.2

 ILLEGAL STATE  2.1 SPECIFIED ON CPMCSCF CARD

 GLOBAL ERROR fehler on processor   3                                         
