
 Primary working directories    : /home/chalabaj/SNAFU/ABINITIO/scratch
 Secondary working directories  : /home/chalabaj/SNAFU/ABINITIO/scratch
 Wavefunction directory         : /home/chalabaj/SNAFU/ABINITIO/scratch/
 Main file repository           : /home/chalabaj/SNAFU/ABINITIO/

 SHA1      : 41aa48e1468dac041f2eaabdf410f3ce2ee7f8bf
 NAME      : 2015.1.0
 ARCHNAME  : linux/x86_64
 FC        : /opt/intel/composer_xe_2015.1.133/bin/intel64/ifort
 BLASLIB   : -Wl,-_start-group /opt/intel/mkl/lib/intel64/libmkl_intel_ilp64.a /opt/intel/mkl/lib/intel64/libmkl_intel_thread.a /opt/intel/mkl/lib/intel64/libmkl_core.a -Wl,-_end-group
 id        : vscht

 Nodes      nprocs
 403-as67-01    1

 Using customized tuning parameters: mindgm=1; mindgv=20; mindgc=4; mindgr=1; noblas=0; minvec=7
 default implementation of scratch files=df  

 memory, 1000,m;
 file, 2, input.wfu,unknown
 PUNCH, input.pun,new
 gprint, orbital,civector
 symmetry,nosym
 Angstrom
 
 geometry=../abinit_geom.xyz
 Including file /home/chalabaj/SNAFU/ABINITIO/../abinit_geom.xyz
 
 basis=6-31g
 
                                                                  !-for simple CASSCF, you don't need to modify anything below this
 
                                                        !-we need to get rid of the SAMC records in file 2 (input.wfu,restart file)
                                                               !-otherwise, the forces and NACME are wrong for the following reason
                                                         !-cpmscf will not rewrite itself it but ather write into following records
                                                   !-but the subsequent call to forces would read from old records -&gt; wrong numbers
                                                                              !-we use file 2 for forces and NACME due to df-casscf
 
 data,truncate,2,5101
 
 if (lastorb.ne.MCSCF)then
    {hf;wf,9,0,1}
 endif
 
 multi;
 occ,5;
 closed,3;
 WF,9,0,1;
 state,2;
 maxiter,40;
 ORBITAL,2140.2;
 NOEXTRA;
 
 cpmcscf,grad,1.1,ACCU=1d-9,save=5101.2;
 forces;samc,5101.2;
 

 Variables initialized (889), CPU time= 0.00 sec
 Commands  initialized (702), CPU time= 0.01 sec, 572 directives.
 Default parameters read. Elapsed time= 0.04 sec

 Checking input...
 Passed
1


                                         ***  PROGRAM SYSTEM MOLPRO  ***
                                       Copyright, TTI GmbH Stuttgart, 2015
                                    Version 2015.1 linked Nov 26 2015 20:23:21


 **********************************************************************************************************************************
 LABEL *                                                                                 
  64 bit serial version                                                                  DATE: 25-Jul-18          TIME: 13:57:12  
 **********************************************************************************************************************************

 SHA1:             41aa48e1468dac041f2eaabdf410f3ce2ee7f8bf
 **********************************************************************************************************************************

 Variable memory set to 1000000000 words,  buffer space   230000 words



 Permanent file  2  input.wfu        assigned.  Implementation=df    Size=  1.62 MB
 

 PROGRAM * RESTART 


 Reading variables from file 2

 _NUMVAR         =    896.00000000
 _DKROLL_DONE    =      0.00000000
 _FOCKDONE       =      1.00000000
 _GRADONE        =      1.00000000
 _INTDONE        =      1.00000000
 _DIRECT         =      0.00000000
 _DKHO           =     -1.00000000
 _BASIS          =    6-31G
 _ZUNIT          =    ANG
 _NELEC          =      9.00000000
 _PROGRAM        =    FORCES
 _CPUSTEP        =      0.01000000
 _SYSSTEP        =      0.00000000
 _WALLSTEP       =      0.01000000
 _BASINP         =    610.00000000
 _CPUTOT         =      0.39000000
 _DFTEXFAC       =      1.00000000
 _DMX(1:2)       =      0.95530198     0.74821525
 _DMY(1:2)       =     -0.09838606    -0.09838606
 _DMZ(1:2)       =      0.72484518     0.56305128
 _DMX_SCF        =      0.95066584
 _DMY_SCF        =     -0.09838606
 _DMZ_SCF        =      0.72122303
 _EHOMO          =     -1.12680293
 _ELUMO          =     -0.13986690
 _EIGS(1:13)     =    -21.12062114    -1.84839858    -1.20162501    -1.06228365    -1.12680293    -0.13986690
                       -0.04678565     0.64548114     0.65281685     0.72604476     0.78812453     0.92290387
                        1.22726361
 _ENERGY(1:2)    =    -75.57752417   -75.50640493
 _ENERGY_METHOD  =    MULTI
 _ENERGY_BASIS   =    6-31G
 _GEOMETRY_METHOD=     
 _GEOMETRY_BASIS =     
 _ENUC           =      9.15536171
 _EPS1(1:5)      =    -21.10923789    -1.83276659    -1.19497421    -0.92335291    -0.85275632
 _GRADENERG      =    -75.57752417
 _GRADEXFAC      =   9999.00000000
 _GRADMETHOD     =      5.00000000
 _VIRIAL         =     -0.11239038
 _ITERATIONS     =      2.00000000
 _LASTNELEC      =      3.00000000
 _LASTSPIN       =      1.00000000
 _LASTSYM        =      1.00000000
 _ORBITAL        =   2140.20000000
 _SEIG_MIN       =      0.06823836
 _SEWPROP        =      1.00000000
 _STATUS         =      1.00000000
 _SYSTOT         =      0.76000000
 _WALLTOT        =      1.17000000
 _LASTORB        =    MCSCF
 _PGROUP         =    C1  
 _TIME           =    13:33:35
 _DMX_CC(1:2)    =     -0.52992931    -0.52992931
 _DMY_CC(1:2)    =      0.59031633     0.59031633
 _DMZ_CC(1:2)    =     -0.28491551    -0.28491551
 _DMX_NUC(1:2)   =      0.77553841     0.77553841
 _DMY_NUC(1:2)   =     -0.98386055    -0.98386055
 _DMZ_NUC(1:2)   =      0.39073248     0.39073248
 _TRDMX          =     -0.00000000
 _TRDMY          =     -0.19641556
 _TRDMZ          =     -0.00000000

 Geometry written to block  1 of record 700


 **********************************************************************************************************************************
 DATASETS  * FILE   NREC   LENGTH (MB)   RECORD NAMES
              2       8        1.70       500      700      610     1000      520     2100     2140     5101   
                                          VAR     GEOM    BASINP    BASIS   MCVARS     RHF     MCSCF   CPSAMC    

 PROGRAMS   *        TOTAL   RESTART
 CPU TIMES  *         0.11      0.00
 REAL TIME  *         0.11 SEC
 DISK USED  *         0.03 MB      
 **********************************************************************************************************************************

 PUNCHFILE INPUT.PUN OPENED

 ZSYMEL=NOSYM
 ZUNIT=ANG
 

Geometry recognized as XYZ

 SETTING BASIS          =    6-31G

 

 TRUNCATING FILE 1 AFTER   1 RECORDS

 TRUNCATING FILE 2 BEFORE RECORD  5101


 **********************************************************************************************************************************
 DATASETS  * FILE   NREC   LENGTH (MB)   RECORD NAMES
              2       7        1.70       500      700      610     1000      520     2100     2140   
                                          VAR     GEOM    BASINP    BASIS   MCVARS     RHF     MCSCF   

 PROGRAMS   *        TOTAL      DATA   RESTART
 CPU TIMES  *         0.12      0.00      0.00
 REAL TIME  *         0.12 SEC
 DISK USED  *         2.85 MB      
 **********************************************************************************************************************************


 Recomputing integrals since basis changed


 Using spherical harmonics

 Library entry O      S 6-31G                selected for orbital group  1
 Library entry O      P 6-31G                selected for orbital group  1
 Library entry H      S 6-31G                selected for orbital group  2

1PROGRAM * SEWARD (Integral evaluation for generally contracted gaussian basis sets)     Author: Roland Lindh, 1990

 Geometry written to block  1 of record 700


 Point group  C1  



 ATOMIC COORDINATES

 NR  ATOM    CHARGE       X              Y              Z

   1  O       8.00   -0.098504885   -0.098386055   -0.098478891
   2  H       1.00   -0.100684150   -0.098386055    1.718782502
   3  H       1.00    1.664249103   -0.098386055   -0.540228683

 Bond lengths in Bohr (Angstrom)

 1-2  1.817262700  1-3  1.817262915
     ( 0.961654007)     ( 0.961654121)

 Bond angles

  2-1-3  104.13741479

 NUCLEAR CHARGE:                   10
 NUMBER OF PRIMITIVE AOS:          30
 NUMBER OF SYMMETRY AOS:           30
 NUMBER OF CONTRACTIONS:           13   (  13A   )
 NUMBER OF CORE ORBITALS:           1   (   1A   )
 NUMBER OF VALENCE ORBITALS:        6   (   6A   )


 NUCLEAR REPULSION ENERGY    9.15328019

 EXTRA SYMMETRY OF AOS IN SYMMETRY 1:   1 1 1 1 2 1 1 2 1 1   1 1 1

 Eigenvalues of metric

         1 0.683E-01 0.121E+00 0.322E+00 0.328E+00 0.424E+00 0.498E+00 0.682E+00 0.744E+00


 Contracted 2-electron integrals neglected if value below      1.0D-11
 AO integral compression algorithm  1   Integral accuracy      1.0D-11

     0.262 MB (compressed) written to integral file ( 95.6%)


 NUMBER OF SORTED TWO-ELECTRON INTEGRALS:       4186.     BUFFER LENGTH:  32768
 NUMBER OF SEGMENTS:   1  SEGMENT LENGTH:       4186      RECORD LENGTH: 524288

 Memory used in sort:       0.56 MW

 SORT1 READ        6781. AND WROTE        2280. INTEGRALS IN      1 RECORDS. CPU TIME:     0.00 SEC, REAL TIME:     0.00 SEC
 SORT2 READ        2280. AND WROTE        4186. INTEGRALS IN      1 RECORDS. CPU TIME:     0.00 SEC, REAL TIME:     0.00 SEC

 FILE SIZES:   FILE 1:    16.7 MBYTE,  FILE 4:     4.2 MBYTE,   TOTAL:     20.9 MBYTE

 OPERATOR DM      FOR CENTER  0  COORDINATES:    0.000000    0.000000    0.000000


 **********************************************************************************************************************************
 DATASETS  * FILE   NREC   LENGTH (MB)   RECORD NAMES
              1      19       16.43       500      700      610      900      950      970     1000      129      960     1100   
                                          VAR     GEOM    BASINP   SYMINP    ZMAT    AOBASIS   BASIS     P2S    ABASIS      S 
                                         1400     1410     1200     1210     1080     1600     1650     1300     1700   
                                           T        V       H0       H01     AOSYM     SMH    MOLCAS    ERIS     OPER   

              2       7        1.70       500      700      610     1000      520     2100     2140   
                                          VAR     GEOM    BASINP    BASIS   MCVARS     RHF     MCSCF   

 PROGRAMS   *        TOTAL       INT      DATA   RESTART
 CPU TIMES  *         0.39      0.27      0.00      0.00
 REAL TIME  *         1.14 SEC
 DISK USED  *        22.63 MB      
 **********************************************************************************************************************************

1PROGRAM * MULTI (Direct Multiconfiguration SCF)       Authors: P.J. Knowles, H.-J. Werner (1984)     S.T. Elbert (1988)


 Number of closed-shell orbitals:   3 (   3 )
 Number of active  orbitals:        2 (   2 )
 Number of external orbitals:       8 (   8 )

 State symmetry 1

 Number of electrons:     3    Spin symmetry=Doublet   Space symmetry=1
 Number of states:        2
 Number of CSFs:          2   (2 determinants, 2 intermediate states)

 Iteration controls:
             1  2  3  4  5  6  7  8  9 10 11 12 13 14 15 16 17 18 19 20 21 22 23 24 25 26 27 28 29 30 31 32 33 34 35 36 37 38 39
 DIAGCI      T  T  T  T  T  T  T  T  T  T  T  T  T  T  T  T  T  T  T  T  T  T  T  T  T  T  T  T  T  T  T  T  T  T  T  T  T  T  T
 WERNER      T  T  T  T  T  T  T  T  T  T  T  T  T  T  T  T  T  T  T  T  T  T  T  T  T  T  T  T  T  T  T  T  T  T  T  T  T  T  T
 INTERNAL    F  T  T  T  T  T  T  T  T  T  T  T  T  T  T  T  T  T  T  T  T  T  T  T  T  T  T  T  T  T  T  T  T  T  T  T  T  T  T

 Molecular orbitals read from record     2140.2  Type=MCSCF/NATURAL (state averaged)

 Wavefunction dump at record             2140.2

 Convergence thresholds  0.10E-05 (gradient)  0.10E-07 (energy)  0.10E-02 (step length)

 Weight factors for state symmetry  1:    0.50000   0.50000

 Number of orbital rotations:       46   (     6 Core/Active     24 Core/Virtual   0 Active/Active     16 Active/Virtual)
 Total number of variables:         50


 ITER. MIC  NCI  NEG     ENERGY(VAR)     ENERGY(PROJ)   ENERGY CHANGE     GRAD(0)  GRAD(ORB)   GRAD(CI)     STEP       TIME

   1   17    7    0     -75.54202436     -75.54202440   -0.00000004    0.00036044 0.00000000 0.00000000  0.99D-04      0.00
   2   15   10    0     -75.54202440     -75.54202440    0.00000000    0.00000001 0.00000000 0.00000000  0.15D-08      0.01

 ** WVFN ****  CONVERGENCE REACHED, FINAL GRADIENT:  0.24D-13

 Solving MCSCF z-vector equations for state  1.1, requested accuracy=      0.10D-08
 Convergence reached in   9 iterations (  9 expansion vectors), accuracy=  0.12D-09

 SA-Gradient information saved on record      5101.2



 Results for state 1.1
 =====================

 !MCSCF STATE 1.1 Energy              -75.577566318123
 Nuclear energy                         9.15328019
 Kinetic energy                        75.62432915
 One electron energy                 -117.83478602
 Two electron energy                   33.10393952
 Virial ratio                           1.99938164

 !MCSCF STATE 1.1 Dipole moment         0.95533369    -0.09838606     0.72486996
 Dipole moment /Debye                   2.42805701    -0.25005603     1.84231499

 Results for state 2.1
 =====================

 !MCSCF STATE 2.1 Energy              -75.506482481241
 Nuclear energy                         9.15328019
 Kinetic energy                        75.69016741
 One electron energy                 -117.95937679
 Two electron energy                   33.29961412
 Virial ratio                           1.99757320

 !MCSCF STATE 2.1 Dipole moment         0.74835708    -0.09838606     0.56316209
 Dipole moment /Debye                   1.90200939    -0.25005603     1.43132150

 State-averaged charge density matrix saved on record  2140.2 (density set 1)

 !MCSCF expec         <1.1|DMX|1.1>     0.955333693125 au =     2.428057007772 Debye
 !MCSCF expec         <2.1|DMX|2.1>     0.748357080432 au =     1.902009388484 Debye

 !MCSCF expec         <1.1|DMY|1.1>    -0.098386055071 au =    -0.250056029847 Debye
 !MCSCF trans         <2.1|DMY|1.1>    -0.196317201673 au =    -0.498955873429 Debye
 !MCSCF expec         <2.1|DMY|2.1>    -0.098386055071 au =    -0.250056029847 Debye

 !MCSCF expec         <1.1|DMZ|1.1>     0.724869958528 au =     1.842314989196 Debye
 !MCSCF expec         <2.1|DMZ|2.1>     0.563162086248 au =     1.431321495165 Debye


 NATURAL ORBITALS (state averaged)
 =================================

   Orb     Occ        Energy       Coefficients

                                   1 1s      1 1s      1 1s      1 2px     1 2py     1 2pz     1 2px     1 2py     1 2pz     2 1s   
                                   2 1s      3 1s      3 1s   

   1.1  2.00000   -21.109204     0.995800  0.021976 -0.008089  0.001062  0.000000  0.000830 -0.001341  0.000000 -0.001048  0.000181
                                 0.001880  0.000181  0.001880

   2.1  2.00000    -1.832595    -0.214850  0.500494  0.468524  0.112814  0.000000  0.088140  0.064004  0.000000  0.050005  0.137878
                                -0.028805  0.137878 -0.028805

   3.1  2.00000    -1.194851     0.000000 -0.000000 -0.000000 -0.354040  0.000000  0.453150 -0.179342 -0.000000  0.229547  0.246666
                                 0.035051 -0.246666 -0.035051

   4.1  1.50000    -0.852695     0.000000 -0.000000 -0.000000  0.000000  0.707771  0.000000  0.000000  0.435644  0.000000  0.000000
                                 0.000000  0.000000  0.000000

   5.1  1.50000    -0.923244     0.079226 -0.216839 -0.219713  0.494148 -0.000000  0.386071  0.285492 -0.000000  0.223051  0.123666
                                 0.028006  0.123666  0.028006

 Total charge:   1.000000000000
 

 Natural orbital dump (state averaged) at molpro section  2140.2    (Orbital set 2)


 CI vector
 =========

 a2      1.0000000   0.0000000
 2a      0.0000000   1.0000000

 TOTAL ENERGIES                       -75.57756632   -75.50648248



 **********************************************************************************************************************************
 DATASETS  * FILE   NREC   LENGTH (MB)   RECORD NAMES
              1      20       16.46       500      700      610      900      950      970     1000      129      960     1100   
                                          VAR     GEOM    BASINP   SYMINP    ZMAT    AOBASIS   BASIS     P2S    ABASIS      S 
                                         1400     1410     1200     1210     1080     1600     1650     1300     1700     1380   
                                           T        V       H0       H01     AOSYM     SMH    MOLCAS    ERIS     OPER     JKOP   

              2       8        1.70       500      700      610     1000      520     2100     2140     5101   
                                          VAR     GEOM    BASINP    BASIS   MCVARS     RHF     MCSCF   CPSAMC    

 PROGRAMS   *        TOTAL     MULTI       INT      DATA   RESTART
 CPU TIMES  *         0.40      0.01      0.27      0.00      0.00
 REAL TIME  *         1.15 SEC
 DISK USED  *        22.63 MB      
 **********************************************************************************************************************************

1PROGRAM * FORCE (Gradient of the energy)

 SA-MCSCF information from    5101.2
 Orbitals from record         2140.2

 Number of closed-shell orbitals:  3 (  3 )
 Number of active orbitals:        2 (  2 )
 Number of occupied orbitals:      5 (  5 )

 Number of electrons=  9     Doublet     Space symmetry=1      Wavefunction type: SA-MCSCF


 End of calculation of the energy gradient  ,IREST=   0


 SA-MC GRADIENT FOR STATE 1.1

 Atom          dE/dx               dE/dy               dE/dz

   1        -0.002123318        -0.000000000        -0.001658799
   2         0.025666720         0.000000000        -0.030663697
   3        -0.023543402         0.000000000         0.032322496

 Nuclear force contribution to virial =        -0.111559570


 **********************************************************************************************************************************
 DATASETS  * FILE   NREC   LENGTH (MB)   RECORD NAMES
              1      20       16.46       500      700      610      900      950      970     1000      129      960     1100   
                                          VAR     GEOM    BASINP   SYMINP    ZMAT    AOBASIS   BASIS     P2S    ABASIS      S 
                                         1400     1410     1200     1210     1080     1600     1650     1300     1700     1380   
                                           T        V       H0       H01     AOSYM     SMH    MOLCAS    ERIS     OPER     JKOP   

              2       8        1.70       500      700      610     1000      520     2100     2140     5101   
                                          VAR     GEOM    BASINP    BASIS   MCVARS     RHF     MCSCF   CPSAMC    

 PROGRAMS   *        TOTAL    FORCES     MULTI       INT      DATA   RESTART
 CPU TIMES  *         0.40      0.00      0.01      0.27      0.00      0.00
 REAL TIME  *         1.16 SEC
 DISK USED  *        22.63 MB      
 **********************************************************************************************************************************

 MULTI/6-31G energy=    -75.506482481241

        MULTI   
    -75.57756632
 **********************************************************************************************************************************
 Variable memory released
