6 
Step: 1      Time_fs: 0.0967553730602
 O 0.05780542 -0.30835040 -1.42485174
 O -0.02526107 0.31063626 1.52696280
 H -0.01452253 -1.25371457 -1.24864389
 H -0.37641427 0.01033845 -2.20981131
 H 0.61968579 1.06111842 0.99809062
 H -0.74532445 0.14597427 0.83955888
6 
Step: 2      Time_fs: 0.1935107461204
 O 0.05780782 -0.30834927 -1.42483457
 O -0.02524663 0.31065775 1.52693990
 H -0.01454576 -1.25365720 -1.24879513
 H -0.37644299 0.01026112 -2.20985009
 H 0.61943511 1.06079174 0.99833634
 H -0.74528898 0.14596196 0.83959418
6 
Step: 3      Time_fs: 0.2902661191806
 O 0.05781180 -0.30834737 -1.42480598
 O -0.02522260 0.31069353 1.52690177
 H -0.01458447 -1.25356204 -1.24904702
 H -0.37649076 0.01013228 -2.20991456
 H 0.61901782 1.06024787 0.99874549
 H -0.74523002 0.14594141 0.83965289
6 
Step: 4      Time_fs: 0.3870214922408
 O 0.05781737 -0.30834466 -1.42476600
 O -0.02518900 0.31074354 1.52684844
 H -0.01463863 -1.25342973 -1.24939929
 H -0.37655740 0.00995200 -2.21000444
 H 0.61843466 1.05948770 0.99931752
 H -0.74514780 0.14591256 0.83973484
6 
Step: 5      Time_fs: 0.483776865301
 O 0.05782450 -0.30834108 -1.42471468
 O -0.02514587 0.31080773 1.52677999
 H -0.01470819 -1.25326120 -1.24985157
 H -0.37664269 0.00972036 -2.21011939
 H 0.61768672 1.05851247 1.00005163
 H -0.74504267 0.14587533 0.83983976
6 
Step: 6      Time_fs: 0.5805322383612
 O 0.05783317 -0.30833657 -1.42465206
 O -0.02509329 0.31088598 1.52669650
 H -0.01479310 -1.25305762 -1.25040337
 H -0.37674635 0.00943748 -2.21025893
 H 0.61677537 1.05732380 1.00094678
 H -0.74491505 0.14582964 0.83996735
6 
Step: 7      Time_fs: 0.6772876114214
 O 0.05784336 -0.30833105 -1.42457823
 O -0.02503132 0.31097819 1.52659807
 H -0.01489330 -1.25282042 -1.25105413
 H -0.37686802 0.00910351 -2.21042252
 H 0.61570231 1.05592369 1.00200170
 H -0.74476545 0.14577536 0.84011721
6 
Step: 8      Time_fs: 0.7740429844816
 O 0.05785503 -0.30832443 -1.42449327
 O -0.02496006 0.31108420 1.52648483
 H -0.01500871 -1.25255126 -1.25180317
 H -0.37700730 0.00871863 -2.21060948
 H 0.61446960 1.05431455 1.00321487
 H -0.74459448 0.14571236 0.84028889
6 
Step: 9      Time_fs: 0.8707983575418
 O 0.05786815 -0.30831661 -1.42439726
 O -0.02487961 0.31120387 1.52635692
 H -0.01513925 -1.25225206 -1.25264969
 H -0.37716372 0.00828303 -2.21081909
 H 0.61307963 1.05249917 1.00458448
 H -0.74440284 0.14564048 0.84048185
6 
Step: 10      Time_fs: 0.967553730602
 O 0.05788269 -0.30830746 -1.42429032
 O -0.02479009 0.31133699 1.52621450
 H -0.01528481 -1.25192495 -1.25359283
 H -0.37733677 0.00779697 -2.21105051
 H 0.61153516 1.05048079 1.00610847
 H -0.74419131 0.14555954 0.84069553
6 
Step: 11      Time_fs: 1.0643091036622
 O 0.05789860 -0.30829686 -1.42417256
 O -0.02469167 0.31148335 1.52605776
 H -0.01544528 -1.25157228 -1.25463161
 H -0.37752587 0.00726071 -2.21130282
 H 0.60983934 1.04826307 1.00778449
 H -0.74396075 0.14546935 0.84092928
6 
Step: 12      Time_fs: 1.1610644767224
 O 0.05791583 -0.30828466 -1.42404410
 O -0.02458448 0.31164271 1.52588691
 H -0.01562054 -1.25119660 -1.25576498
 H -0.37773040 0.00667457 -2.21157503
 H 0.60799570 1.04585016 1.00960987
 H -0.74371210 0.14536970 0.84118239
6 
Step: 13      Time_fs: 1.2578198497826
 O 0.05793433 -0.30827072 -1.42390509
 O -0.02446874 0.31181478 1.52570218
 H -0.01581044 -1.25080067 -1.25699180
 H -0.37794971 0.00603889 -2.21186608
 H 0.60600821 1.04324670 1.01158164
 H -0.74344638 0.14526037 0.84145411
6 
Step: 14      Time_fs: 1.3545752228428
 O 0.05795406 -0.30825489 -1.42375566
 O -0.02434463 0.31199927 1.52550383
 H -0.01601481 -1.25038742 -1.25831082
 H -0.37818310 0.00535407 -2.21217484
 H 0.60388128 1.04045783 1.01369648
 H -0.74316469 0.14514111 0.84174364
6 
Step: 15      Time_fs: 1.451330595903
 O 0.05797495 -0.30823699 -1.42359597
 O -0.02421241 0.31219583 1.52529214
 H -0.01623350 -1.24995995 -1.25972075
 H -0.37842981 0.00462054 -2.21250011
 H 0.60161979 1.03748925 1.01595070
 H -0.74286818 0.14501168 0.84205012
6 
Step: 16      Time_fs: 1.5480859689632
 O 0.05799694 -0.30821686 -1.42342619
 O -0.02407233 0.31240408 1.52506741
 H -0.01646630 -1.24952151 -1.26122019
 H -0.37868908 0.00383879 -2.21284066
 H 0.59922913 1.03434723 1.01834026
 H -0.74255807 0.14487181 0.84237267
6 
Step: 17      Time_fs: 1.6448413420234
 O 0.05801998 -0.30819432 -1.42324648
 O -0.02392469 0.31262363 1.52482999
 H -0.01671301 -1.24907548 -1.26280770
 H -0.37896010 0.00300933 -2.21319518
 H 0.59671518 1.03103864 1.02086070
 H -0.74223565 0.14472122 0.84271034
6 
Step: 18      Time_fs: 1.7415967150836
 O 0.05804400 -0.30816919 -1.42305702
 O -0.02376980 0.31285400 1.52458024
 H -0.01697341 -1.24862535 -1.26448175
 H -0.37924206 0.00213276 -2.21356235
 H 0.59408440 1.02757099 1.02350714
 H -0.74190226 0.14455965 0.84306217
6 
Step: 19      Time_fs: 1.8383520881438
 O 0.05806894 -0.30814128 -1.42285800
 O -0.02360804 0.31309472 1.52431855
 H -0.01724724 -1.24817471 -1.26624076
 H -0.37953409 0.00120970 -2.21394078
 H 0.59134383 1.02395249 1.02627426
 H -0.74155927 0.14438679 0.84342716
6 
Step: 20      Time_fs: 1.935107461204
 O 0.05809471 -0.30811042 -1.42264959
 O -0.02343978 0.31334523 1.52404534
 H -0.01753425 -1.24772723 -1.26808309
 H -0.37983534 0.00024085 -2.21432908
 H 0.58850112 1.02019201 1.02915626
 H -0.74120811 0.14420236 0.84380430
6 
