6 
Step: 1      Time_fs:0.0967553730602
 O 0.00000076 0.00000035 0.00000541
 O 0.00000455 0.00000677 -0.00000721
 H -0.00000732 0.00001808 -0.00004764
 H -0.00000905 -0.00002436 -0.00001222
 H -0.00007896 -0.00010290 0.00007740
 H 0.00001118 -0.00000388 0.00001112
6 
Step: 2      Time_fs:0.1935107461204
 O 0.00000151 0.00000072 0.00001081
 O 0.00000909 0.00001353 -0.00001442
 H -0.00001463 0.00003603 -0.00009522
 H -0.00001807 -0.00004870 -0.00002439
 H -0.00015779 -0.00020564 0.00015469
 H 0.00002231 -0.00000776 0.00002221
6 
Step: 3      Time_fs:0.2902661191806
 O 0.00000226 0.00000109 0.00001620
 O 0.00001361 0.00002027 -0.00002160
 H -0.00002194 0.00005373 -0.00014271
 H -0.00002702 -0.00007302 -0.00003646
 H -0.00023632 -0.00030804 0.00023177
 H 0.00003335 -0.00001167 0.00003323
6 
Step: 4      Time_fs:0.3870214922408
 O 0.00000300 0.00000149 0.00002157
 O 0.00001812 0.00002698 -0.00002877
 H -0.00002922 0.00007106 -0.00019005
 H -0.00003589 -0.00009730 -0.00004838
 H -0.00031443 -0.00040993 0.00030853
 H 0.00004425 -0.00001561 0.00004414
6 
Step: 5      Time_fs:0.483776865301
 O 0.00000373 0.00000191 0.00002691
 O 0.00002261 0.00003365 -0.00003589
 H -0.00003649 0.00008790 -0.00023718
 H -0.00004463 -0.00012154 -0.00006011
 H -0.00039195 -0.00051115 0.00038486
 H 0.00005498 -0.00001959 0.00005492
6 
Step: 6      Time_fs:0.5805322383612
 O 0.00000445 0.00000237 0.00003223
 O 0.00002706 0.00004026 -0.00004297
 H -0.00004373 0.00010412 -0.00028407
 H -0.00005323 -0.00014571 -0.00007160
 H -0.00046875 -0.00061151 0.00046064
 H 0.00006548 -0.00002361 0.00006554
6 
Step: 7      Time_fs:0.6772876114214
 O 0.00000516 0.00000287 0.00003751
 O 0.00003147 0.00004682 -0.00005000
 H -0.00005093 0.00011961 -0.00033065
 H -0.00006164 -0.00016980 -0.00008281
 H -0.00054466 -0.00071083 0.00053576
 H 0.00007572 -0.00002770 0.00007595
6 
Step: 8      Time_fs:0.7740429844816
 O 0.00000586 0.00000341 0.00004275
 O 0.00003584 0.00005331 -0.00005696
 H -0.00005810 0.00013425 -0.00037689
 H -0.00006985 -0.00019381 -0.00009368
 H -0.00061952 -0.00080893 0.00061009
 H 0.00008565 -0.00003186 0.00008613
6 
Step: 9      Time_fs:0.8707983575418
 O 0.00000653 0.00000401 0.00004794
 O 0.00004015 0.00005971 -0.00006386
 H -0.00006522 0.00014795 -0.00042275
 H -0.00007783 -0.00021771 -0.00010418
 H -0.00069316 -0.00090560 0.00068351
 H 0.00009524 -0.00003610 0.00009606
6 
Step: 10      Time_fs:0.967553730602
 O 0.00000719 0.00000467 0.00005308
 O 0.00004439 0.00006602 -0.00007067
 H -0.00007229 0.00016058 -0.00046816
 H -0.00008554 -0.00024149 -0.00011426
 H -0.00076541 -0.00100063 0.00075589
 H 0.00010443 -0.00004042 0.00010569
6 
Step: 11      Time_fs:1.0643091036622
 O 0.00000783 0.00000539 0.00005816
 O 0.00004857 0.00007222 -0.00007738
 H -0.00007930 0.00017205 -0.00051310
 H -0.00009298 -0.00026513 -0.00012390
 H -0.00083608 -0.00109383 0.00082709
 H 0.00011320 -0.00004484 0.00011500
6 
Step: 12      Time_fs:1.1610644767224
 O 0.00000844 0.00000617 0.00006318
 O 0.00005266 0.00007829 -0.00008399
 H -0.00008625 0.00018227 -0.00055751
 H -0.00010012 -0.00028861 -0.00013305
 H -0.00090497 -0.00118495 0.00089695
 H 0.00012150 -0.00004936 0.00012397
6 
Step: 13      Time_fs:1.2578198497826
 O 0.00000903 0.00000703 0.00006813
 O 0.00005666 0.00008423 -0.00009049
 H -0.00009313 0.00019114 -0.00060137
 H -0.00010693 -0.00031192 -0.00014168
 H -0.00097189 -0.00127375 0.00096532
 H 0.00012931 -0.00005400 0.00013258
6 
Step: 14      Time_fs:1.3545752228428
 O 0.00000959 0.00000797 0.00007302
 O 0.00006055 0.00009001 -0.00009686
 H -0.00009993 0.00019859 -0.00064462
 H -0.00011341 -0.00033504 -0.00014977
 H -0.00103661 -0.00136000 0.00103204
 H 0.00013658 -0.00005874 0.00014079
6 
Step: 15      Time_fs:1.451330595903
 O 0.00001013 0.00000898 0.00007783
 O 0.00006432 0.00009562 -0.00010309
 H -0.00010665 0.00020454 -0.00068724
 H -0.00011952 -0.00035793 -0.00015728
 H -0.00109891 -0.00144342 0.00109694
 H 0.00014329 -0.00006361 0.00014859
6 
Step: 16      Time_fs:1.5480859689632
 O 0.00001064 0.00001008 0.00008256
 O 0.00006796 0.00010105 -0.00010917
 H -0.00011327 0.00020893 -0.00072919
 H -0.00012526 -0.00038059 -0.00016419
 H -0.00115855 -0.00152374 0.00115982
 H 0.00014941 -0.00006861 0.00015595
6 
Step: 17      Time_fs:1.6448413420234
 O 0.00001112 0.00001126 0.00008720
 O 0.00007146 0.00010628 -0.00011508
 H -0.00011979 0.00021169 -0.00077043
 H -0.00013062 -0.00040299 -0.00017047
 H -0.00121527 -0.00160065 0.00122050
 H 0.00015491 -0.00007374 0.00016287
6 
Step: 18      Time_fs:1.7415967150836
 O 0.00001156 0.00001253 0.00009177
 O 0.00007480 0.00011128 -0.00012081
 H -0.00012619 0.00021278 -0.00081094
 H -0.00013558 -0.00042510 -0.00017612
 H -0.00126880 -0.00167386 0.00127877
 H 0.00015977 -0.00007900 0.00016933
6 
Step: 19      Time_fs:1.8383520881438
 O 0.00001198 0.00001388 0.00009624
 O 0.00007796 0.00011604 -0.00012635
 H -0.00013248 0.00021215 -0.00085069
 H -0.00014014 -0.00044690 -0.00018112
 H -0.00131886 -0.00174303 0.00133441
 H 0.00016397 -0.00008440 0.00017530
6 
Step: 20      Time_fs:1.935107461204
 O 0.00001236 0.00001532 0.00010063
 O 0.00008092 0.00012053 -0.00013168
 H -0.00013864 0.00020978 -0.00088965
 H -0.00014429 -0.00046836 -0.00018544
 H -0.00136515 -0.00180783 0.00138720
 H 0.00016748 -0.00008993 0.00018079
6 
