[Molden Format]
[Title]
Written by TeraChem
[Atoms] Angs
O   1   8      0.00000    0.00000    0.00000
O   2   8      0.00000    0.00000    1.55397
H   3   1      0.45940    0.00000   -0.22051
H   4   1     -0.25266   -0.39087   -0.20757
H   5   1     -0.00970    0.02499    1.04293
H   6   1     -0.21609    0.43145    1.71538
[GTO]
    1 0
 s    6 1.00
         5484.671700             0.001831
          825.234950             0.013950
          188.046960             0.068445
           52.964500             0.232714
           16.897570             0.470193
            5.799635             0.358521
 s    3 1.00
           15.539616            -0.110778
            3.599934            -0.148026
            1.013762             1.130767
 s    1 1.00
            0.270006             1.000000
 p    3 1.00
           15.539616             0.070874
            3.599934             0.339753
            1.013762             0.727159
 p    1 1.00
            0.270006             1.000000
 d    1 1.00
            0.800000             1.000000

    2 0
 s    6 1.00
         5484.671700             0.001831
          825.234950             0.013950
          188.046960             0.068445
           52.964500             0.232714
           16.897570             0.470193
            5.799635             0.358521
 s    3 1.00
           15.539616            -0.110778
            3.599934            -0.148026
            1.013762             1.130767
 s    1 1.00
            0.270006             1.000000
 p    3 1.00
           15.539616             0.070874
            3.599934             0.339753
            1.013762             0.727159
 p    1 1.00
            0.270006             1.000000
 d    1 1.00
            0.800000             1.000000

    3 0
 s    3 1.00
           18.731137             0.033495
            2.825394             0.234727
            0.640122             0.813757
 s    1 1.00
            0.161278             1.000000
 p    1 1.00
            1.100000             1.000000

    4 0
 s    3 1.00
           18.731137             0.033495
            2.825394             0.234727
            0.640122             0.813757
 s    1 1.00
            0.161278             1.000000
 p    1 1.00
            1.100000             1.000000

    5 0
 s    3 1.00
           18.731137             0.033495
            2.825394             0.234727
            0.640122             0.813757
 s    1 1.00
            0.161278             1.000000
 p    1 1.00
            1.100000             1.000000

    6 0
 s    3 1.00
           18.731137             0.033495
            2.825394             0.234727
            0.640122             0.813757
 s    1 1.00
            0.161278             1.000000
 p    1 1.00
            1.100000             1.000000

[MO]
 Ene= 0.0
 Spin= Alpha
 Occup=     2.0000
    1    0.00017
    2    0.00203
    3    0.00262
    4    0.52537
    5    0.29257
    6    0.00513
    7    0.09132
    8    0.04995
    9    0.00264
   10    0.02049
   11   -0.02007
   12    0.00090
   13   -0.01460
   14   -0.01298
   15   -0.00794
   16    0.00169
   17   -0.00205
   18   -0.00550
   19    0.04080
   20    0.00389
   21   -0.02374
   22    0.02441
   23    0.01169
   24   -0.00224
   25   -0.00203
   26    0.00070
   27    0.00107
   28    0.00200
   29   -0.00386
   30   -0.00305
   31    0.33138
   32    0.07981
   33   -0.03766
   34   -0.00208
   35    0.01569
   36   -0.34099
   37   -0.08229
   38   -0.02210
   39   -0.03172
   40   -0.01492
   41    0.01622
   42    0.00986
   43    0.01362
   44    0.00754
   45    0.00074
   46   -0.01730
   47   -0.00691
   48   -0.00132
   49    0.00118
   50    0.00097
 Ene= 0.0
 Spin= Alpha
 Occup=     2.0000
    1   -0.01075
    2   -0.02802
    3   -0.01858
    4    0.05527
    5   -0.04368
    6   -0.25402
    7    0.00048
    8    0.00879
    9   -0.05378
   10   -0.01627
   11   -0.00797
   12   -0.01122
   13   -0.01024
   14   -0.00997
   15    0.01828
   16   -0.03790
   17    0.05771
   18    0.09457
   19   -0.13791
   20    0.27621
   21    0.42895
   22   -0.00962
   23    0.02221
   24    0.05015
   25    0.00483
   26    0.02145
   27   -0.03289
   28   -0.01261
   29   -0.00424
   30    0.00818
   31    0.10580
   32    0.02747
   33   -0.00754
   34    0.00629
   35    0.00196
   36    0.07137
   37    0.02017
   38   -0.00350
   39    0.00609
   40    0.00062
   41   -0.29425
   42   -0.16776
   43    0.00418
   44   -0.00620
   45   -0.02188
   46    0.34385
   47    0.11768
   48    0.01602
   49   -0.03210
   50   -0.01552
 Ene= 0.0
 Spin= Alpha
 Occup=     2.0000
    1    0.17428
    2   -0.26882
    3   -0.08372
    4   -0.06142
    5    0.11587
    6    0.15561
    7    0.00849
    8   -0.01650
    9   -0.02569
   10    0.02075
   11   -0.00022
   12    0.00527
   13    0.01856
   14    0.00647
   15   -0.01288
   16   -0.17106
   17    0.27445
   18    0.01468
   19   -0.06133
   20    0.12379
   21   -0.07375
   22    0.00035
   23   -0.00187
   24    0.02939
   25    0.00294
   26    0.01499
   27   -0.01116
   28   -0.00905
   29    0.01402
   30   -0.02782
   31   -0.23394
   32   -0.03619
   33    0.01552
   34   -0.01456
   35   -0.01720
   36   -0.23365
   37   -0.03707
   38    0.00355
   39   -0.02114
   40   -0.01709
   41    0.20220
   42    0.12541
   43    0.00811
   44   -0.01663
   45    0.02867
   46    0.22209
   47   -0.01126
   48    0.01269
   49   -0.02544
   50    0.01250
 Ene= 0.0
 Spin= Alpha
 Occup=     2.0000
    1   -0.17448
    2    0.28640
    3    0.06182
    4    0.04255
    5   -0.08104
    6   -0.02589
    7   -0.01100
    8    0.02119
    9    0.01400
   10   -0.01497
   11    0.00264
   12   -0.00523
   13   -0.01568
   14   -0.00751
   15    0.01562
   16   -0.16389
   17    0.26337
   18    0.08079
   19   -0.04581
   20    0.09304
   21   -0.13307
   22    0.01043
   23   -0.02069
   24    0.00345
   25   -0.01723
   26   -0.01115
   27   -0.01542
   28   -0.00431
   29    0.01378
   30   -0.02779
   31    0.18817
   32    0.01387
   33   -0.01255
   34    0.01356
   35    0.01650
   36    0.18877
   37    0.01427
   38   -0.00419
   39    0.01782
   40    0.01693
   41    0.25648
   42    0.03059
   43    0.01169
   44   -0.02395
   45   -0.01188
   46    0.18467
   47    0.00066
   48    0.00891
   49   -0.01811
   50    0.01372
 Ene= 0.0
 Spin= Alpha
 Occup=     2.0000
    1    0.00130
    2   -0.00006
    3   -0.00002
    4    0.00001
    5   -0.00004
    6   -0.00017
    7   -0.00010
    8    0.00020
    9   -0.00016
   10   -0.00014
   11    0.00001
   12   -0.00009
   13   -0.00014
   14   -0.00016
   15    0.00034
   16    0.99343
   17    0.02518
   18    0.01195
   19   -0.00217
   20    0.00439
   21   -0.00257
   22   -0.00008
   23    0.00017
   24   -0.00082
   25   -0.00652
   26   -0.00549
   27   -0.00659
   28   -0.00077
   29    0.00099
   30   -0.00199
   31    0.00004
   32    0.00025
   33    0.00004
   34    0.00013
   35    0.00006
   36    0.00002
   37    0.00026
   38   -0.00013
   39    0.00002
   40    0.00008
   41   -0.00028
   42   -0.00315
   43    0.00106
   44   -0.00213
   45   -0.00038
   46   -0.00103
   47   -0.00102
   48    0.00002
   49   -0.00006
   50    0.00221
 Ene= 0.0
 Spin= Alpha
 Occup=     2.0000
    1   -0.99332
    2   -0.02544
    3   -0.01181
    4   -0.00185
    5    0.00351
    6    0.00367
    7   -0.00003
    8    0.00004
    9   -0.00025
   10    0.00744
   11    0.00602
   12    0.00617
   13    0.00125
   14    0.00076
   15   -0.00149
   16    0.00133
   17    0.00005
   18   -0.00210
   19    0.00006
   20   -0.00012
   21    0.00007
   22   -0.00023
   23    0.00045
   24    0.00044
   25    0.00038
   26    0.00054
   27    0.00025
   28   -0.00013
   29   -0.00005
   30    0.00011
   31    0.00053
   32    0.00116
   33   -0.00087
   34   -0.00170
   35   -0.00073
   36    0.00057
   37    0.00113
   38    0.00188
   39   -0.00017
   40   -0.00080
   41   -0.00002
   42    0.00329
   43   -0.00016
   44    0.00032
   45    0.00078
   46   -0.00042
   47   -0.00081
   48    0.00004
   49   -0.00006
   50   -0.00001
 Ene= 0.0
 Spin= Alpha
 Occup=     2.0000
    1    0.00190
    2   -0.00545
    3   -0.01068
    4    0.07508
    5    0.02336
    6   -0.00516
    7    0.01649
    8   -0.00180
    9   -0.00185
   10    0.00123
   11   -0.00200
   12   -0.00021
   13   -0.00197
   14   -0.01407
   15   -0.00694
   16   -0.00100
   17    0.00169
   18    0.00436
   19   -0.58177
   20   -0.29081
   21   -0.00801
   22   -0.40141
   23   -0.20031
   24   -0.00480
   25    0.01645
   26   -0.01702
   27   -0.00001
   28   -0.01451
   29    0.01673
   30    0.00800
   31    0.05699
   32   -0.00111
   33   -0.00306
   34   -0.00129
   35    0.00280
   36   -0.05112
   37    0.00234
   38   -0.00192
   39   -0.00251
   40   -0.00251
   41    0.00235
   42   -0.00274
   43   -0.02910
   44   -0.01509
   45    0.00030
   46   -0.00031
   47   -0.00066
   48   -0.02761
   49   -0.01365
   50   -0.00014
 Ene= 0.0
 Spin= Alpha
 Occup=     1.9999
    1   -0.05610
    2    0.15554
    3    0.29961
    4   -0.30197
    5    0.55191
    6   -0.02232
    7   -0.18305
    8    0.33233
    9   -0.04746
   10    0.01551
   11   -0.00631
   12    0.02249
   13    0.01919
   14    0.00130
   15   -0.00336
   16    0.01576
   17   -0.02447
   18   -0.02209
   19   -0.00506
   20   -0.02255
   21    0.08641
   22    0.00006
   23   -0.02091
   24    0.03706
   25    0.00498
   26    0.00414
   27    0.00167
   28   -0.00048
   29   -0.00140
   30    0.00385
   31   -0.08834
   32   -0.01184
   33   -0.00321
   34    0.01960
   35   -0.00854
   36   -0.08996
   37   -0.01169
   38   -0.01515
   39    0.01306
   40   -0.00859
   41   -0.04803
   42    0.01306
   43   -0.01054
   44    0.01792
   45   -0.00126
   46   -0.01556
   47    0.01595
   48   -0.00052
   49   -0.00013
   50    0.00097
 Ene= 0.0
 Spin= Alpha
 Occup=     1.9998
    1    0.02010
    2   -0.05132
    3   -0.11248
    4   -0.01210
    5    0.02114
    6   -0.21314
    7   -0.01791
    8    0.02915
    9   -0.12752
   10   -0.00264
   11   -0.00280
   12    0.00371
   13    0.00016
   14    0.00163
   15   -0.00401
   16   -0.09126
   17    0.23698
   18    0.39634
   19    0.23442
   20   -0.46686
   21    0.18891
   22    0.11860
   23   -0.23571
   24    0.12123
   25    0.01919
   26   -0.00320
   27    0.02273
   28    0.01713
   29   -0.01573
   30    0.03158
   31    0.02509
   32    0.00990
   33   -0.00432
   34    0.00282
   35   -0.00773
   36    0.02155
   37    0.00981
   38   -0.00046
   39    0.00499
   40   -0.00812
   41   -0.04862
   42    0.05755
   43    0.00356
   44   -0.00678
   45    0.01882
   46   -0.16826
   47   -0.02629
   48   -0.00189
   49    0.00388
   50    0.00613
 Ene= 0.0
 Spin= Alpha
 Occup=     1.0001
    1    0.05727
    2   -0.15208
    3   -0.36020
    4   -0.02972
    5    0.03625
    6   -0.58782
    7   -0.03768
    8    0.05599
    9   -0.40360
   10   -0.02001
   11   -0.01476
   12    0.01814
   13   -0.00430
   14   -0.00942
   15    0.01816
   16   -0.03562
   17    0.04524
   18    0.11982
   19   -0.02843
   20    0.07294
   21   -0.42918
   22   -0.02599
   23    0.06210
   24   -0.22979
   25   -0.00894
   26   -0.00464
   27   -0.00641
   28   -0.00277
   29    0.01370
   30   -0.02785
   31    0.06931
   32    0.02512
   33   -0.00942
   34    0.00761
   35   -0.02166
   36    0.06819
   37    0.02483
   38   -0.00205
   39    0.01167
   40   -0.02198
   41    0.19669
   42   -0.01457
   43    0.00213
   44   -0.00407
   45    0.04548
   46   -0.03193
   47   -0.06986
   48   -0.00290
   49    0.00638
   50   -0.00079
 Ene= 0.0
 Spin= Alpha
 Occup=     0.0002
    1    0.09724
    2   -0.01431
    3   -2.12937
    4   -0.01526
    5    0.02783
    6    0.06814
    7   -0.08323
    8    0.15316
    9    0.23416
   10    0.09290
   11    0.09507
   12    0.10778
   13   -0.00208
   14    0.00764
   15   -0.01345
   16    0.04637
   17   -0.03266
   18   -0.96782
   19    0.00411
   20   -0.01022
   21   -0.01980
   22    0.07723
   23   -0.15273
   24   -0.07999
   25    0.05309
   26    0.03992
   27    0.05010
   28    0.01024
   29   -0.00051
   30    0.00065
   31   -0.00299
   32    1.26427
   33   -0.00798
   34   -0.01154
   35    0.00101
   36   -0.00146
   37    1.24820
   38    0.01420
   39    0.00074
   40    0.00017
   41   -0.01989
   42   -0.06501
   43   -0.00384
   44    0.00754
   45    0.03486
   46    0.01372
   47    0.98030
   48   -0.00202
   49    0.00380
   50   -0.00539
 Ene= 0.0
 Spin= Alpha
 Occup=     0.0000
    1   -0.57773
    2   -4.00833
    3    0.41009
    4   -0.39424
    5    0.74539
    6    0.65557
    7   -0.07952
    8    0.14970
    9    0.18983
   10   -0.59881
   11   -0.26482
   12   -0.87761
   13   -0.31021
   14    0.12096
   15   -0.20691
   16    0.74770
   17    5.25819
   18    1.22006
   19   -0.44684
   20    0.91947
   21   -1.24882
   22   -0.14277
   23    0.29333
   24   -0.29952
   25   -0.15697
   26    0.04866
   27    0.51460
   28   -0.16319
   29   -0.29790
   30    0.57788
   31    2.54005
   32   -0.13708
   33   -1.04734
   34    0.15284
   35    0.42630
   36    2.53405
   37   -0.13441
   38    0.44537
   39    0.96936
   40    0.40635
   41   -3.58084
   42   -0.30946
   43   -0.25923
   44    0.52158
   45   -2.51704
   46   -2.82705
   47   -0.05044
   48   -0.55405
   49    1.11295
   50   -0.02266
 Ene= 0.0
 Spin= Alpha
 Occup=     0.0000
    1   -0.68930
    2   -4.66658
    3   -0.15823
    4   -0.48877
    5    0.91157
    6    1.02477
    7   -0.20768
    8    0.39179
    9    0.71898
   10   -1.12321
   11   -0.37624
   12    0.14033
   13   -0.67367
   14   -0.00004
   15    0.07413
   16   -0.55008
   17   -3.74940
   18    0.31528
   19    0.43311
   20   -0.86675
   21    0.54958
   22    0.22145
   23   -0.43447
   24    0.02424
   25   -0.09659
   26   -0.35934
   27   -0.72895
   28    0.20810
   29    0.25998
   30   -0.52166
   31    3.29459
   32    0.20991
   33   -1.08489
   34    0.37792
   35    0.83285
   36    3.27208
   37    0.21128
   38    0.28411
   39    1.12462
   40    0.80940
   41    2.19596
   42   -1.42204
   43    0.19698
   44   -0.42412
   45    1.06327
   46    2.79027
   47    0.38288
   48    0.51671
   49   -1.03691
   50   -0.02200
 Ene= 0.0
 Spin= Alpha
 Occup=     0.0000
    1    0.08027
    2    0.49014
    3    0.50631
    4    0.05377
    5   -0.12239
    6   -0.32239
    7   -0.00812
    8    0.00916
    9   -0.12910
   10    0.21012
   11    0.03684
   12   -0.58503
   13    0.16084
   14    0.02730
   15   -0.06771
   16   -0.06763
   17   -0.29929
   18    1.24928
   19    0.63608
   20   -1.24986
   21   -1.91881
   22    0.34925
   23   -0.68464
   24   -1.27847
   25   -0.40564
   26   -0.85620
   27    0.32685
   28    0.34871
   29    0.18547
   30   -0.38369
   31   -0.44123
   32    0.03019
   33    0.09942
   34   -0.10116
   35   -0.23375
   36   -0.46919
   37    0.02425
   38    0.01892
   39   -0.14899
   40   -0.23988
   41   -3.03120
   42   -1.71298
   43    0.04589
   44   -0.08285
   45   -1.83118
   46    3.76532
   47    0.90793
   48    0.65395
   49   -1.30483
   50   -0.51861
 Ene= 0.0
 Spin= Alpha
 Occup=     0.0000
    1    0.00075
    2    0.00955
    3    0.00110
    4   -2.05460
    5   -1.13021
    6    0.03591
    7   -1.11334
    8   -0.61217
    9    0.01499
   10   -0.44613
   11    0.46977
   12   -0.03348
   13    0.35357
   14    0.68344
   15    0.36000
   16    0.00251
   17    0.01011
   18   -0.00655
   19    0.13657
   20    0.07955
   21    0.00407
   22    0.08511
   23    0.04628
   24   -0.00068
   25    0.00620
   26   -0.00378
   27    0.00216
   28   -0.00348
   29   -0.17712
   30   -0.09360
   31    3.49072
   32    0.76032
   33   -1.31632
   34   -0.05766
   35    0.47589
   36   -3.50041
   37   -0.76360
   38   -0.76744
   39   -1.08997
   40   -0.44831
   41    0.00761
   42    0.00805
   43   -0.31692
   44   -0.16867
   45   -0.00909
   46   -0.01104
   47   -0.00042
   48    0.02735
   49    0.02151
   50    0.00156
 Ene= 0.0
 Spin= Alpha
 Occup=     0.0000
    1   -0.09493
    2    0.45506
    3    1.68806
    4   -0.09317
    5    0.22605
    6    0.56310
    7    0.07783
    8   -0.16296
    9   -0.08060
   10    0.84325
   11   -0.34768
   12   -2.27252
   13    1.04834
   14    0.52078
   15   -0.95586
   16    0.25843
   17    0.40044
   18   -2.54305
   19    0.27862
   20   -0.46905
   21    0.09193
   22    0.02373
   23   -0.04082
   24    0.74961
   25    0.56881
   26    0.63893
   27   -0.05263
   28   -0.06713
   29   -0.27720
   30    0.46905
   31   -0.52330
   32   -0.39452
   33   -0.45533
   34   -0.82565
   35   -1.19066
   36   -0.54526
   37   -0.39231
   38    0.92187
   39   -0.07875
   40   -1.13083
   41    1.36027
   42    1.27414
   43   -0.54906
   44    0.91086
   45   -1.15885
   46   -0.00607
   47   -0.00589
   48    0.09780
   49   -0.17604
   50   -0.08805
 Ene= 0.0
 Spin= Alpha
 Occup=     0.0000
    1    0.05392
    2    0.06976
    3   -0.69202
    4   -0.35958
    5   -0.02677
    6    0.17350
    7   -0.19079
    8    0.10015
    9    0.25954
   10    0.03775
   11    0.31138
   12    0.11963
   13    0.36995
   14   -1.10918
   15   -0.93023
   16   -0.07668
   17    0.04782
   18    1.19786
   19   -0.77807
   20   -0.49654
   21    0.00776
   22   -0.17121
   23   -0.08312
   24   -0.17179
   25   -0.23617
   26   -0.33925
   27   -0.16682
   28   -0.09015
   29    0.63130
   30    0.54357
   31   -0.03740
   32    0.48255
   33    0.08288
   34   -0.49255
   35    0.84162
   36    0.18866
   37    0.01781
   38    0.06159
   39    0.13196
   40   -1.20278
   41   -0.17344
   42   -0.68783
   43    1.45292
   44    1.12591
   45    0.10960
   46   -0.19823
   47   -0.00697
   48    0.03786
   49    0.08562
   50   -0.00072
 Ene= 0.0
 Spin= Alpha
 Occup=     0.0000
    1    0.21350
    2    0.27711
    3   -2.72257
    4   -0.13949
    5    0.45305
    6    0.52123
    7   -0.29503
    8    0.62578
    9    0.95460
   10    1.00759
   11    0.25104
   12    0.43780
   13    0.51315
   14    0.75083
   15   -0.62172
   16   -0.31399
   17    0.12817
   18    4.91492
   19    0.32663
   20   -0.05853
   21    0.00561
   22    0.05299
   23    0.03971
   24   -0.79226
   25   -1.22781
   26   -1.10960
   27   -0.65954
   28   -0.06036
   29   -0.47485
   30    0.38917
   31    0.41820
   32    0.91179
   33   -0.10324
   34   -0.68337
   35   -0.83253
   36    0.35054
   37    1.03698
   38    0.69642
   39   -0.39817
   40   -0.31108
   41   -0.78129
   42   -2.83187
   43   -0.90253
   44    0.61285
   45    0.39391
   46   -0.64890
   47   -0.00432
   48   -0.11812
   49    0.20987
   50    0.01692
 Ene= 0.0
 Spin= Alpha
 Occup=     0.0000
    1    0.28367
    2   -0.31443
    3   -4.34708
    4   -0.10582
    5    0.20419
    6    0.30516
    7   -0.11929
    8    0.24315
    9    0.00212
   10    1.18775
   11    1.09867
   12    1.75439
   13    0.04500
   14    0.01081
   15    0.03045
   16    0.25361
   17   -0.35009
   18   -4.67151
   19    0.21409
   20   -0.42462
   21    0.16258
   22    0.17079
   23   -0.34919
   24    0.28708
   25    1.23200
   26    1.06400
   27    1.92121
   28    0.11825
   29   -0.38222
   30    0.74936
   31    0.32445
   32    0.53106
   33   -0.15597
   34   -0.11341
   35    0.28415
   36    0.33605
   37    0.54184
   38    0.18849
   39    0.04786
   40    0.31477
   41   -0.52701
   42    2.02294
   43   -0.30151
   44    0.57628
   45    0.88989
   46    0.14750
   47    0.51302
   48   -0.01843
   49    0.05276
   50   -0.81059
 Ene= 0.0
 Spin= Alpha
 Occup=     0.0000
    1   -0.25712
    2    0.37732
    3    3.36627
    4    0.00541
    5   -0.01479
    6    0.01194
    7   -0.00780
    8    0.05661
    9    0.32435
   10   -1.33284
   11   -1.23509
   12   -0.31072
   13   -0.11762
   14   -0.04277
   15    0.11064
   16    0.01137
   17    0.05613
   18   -0.06805
   19    0.23053
   20   -0.44909
   21    0.26019
   22    0.38873
   23   -0.76695
   24   -0.58698
   25   -0.03209
   26   -0.55155
   27    1.51056
   28    0.40027
   29   -0.48960
   30    0.96254
   31   -0.01935
   32   -0.35822
   33    0.27723
   34    0.03164
   35    0.16021
   36    0.00200
   37   -0.33842
   38   -0.17086
   39   -0.23497
   40    0.17478
   41   -1.43508
   42   -1.72032
   43   -0.45915
   44    0.89567
   45    0.99852
   46    0.15399
   47    1.09528
   48   -0.33643
   49    0.66681
   50   -0.96872
 Ene= 0.0
 Spin= Alpha
 Occup=     0.0000
    1   -0.00787
    2   -0.32377
    3    0.25431
    4   -0.10977
    5    0.17704
    6   -0.73637
    7    0.02516
    8   -0.00793
    9   -0.60057
   10    0.05310
   11   -0.13754
   12    0.21543
   13    0.11387
   14   -0.08439
   15    0.18460
   16   -0.04639
   17    0.48823
   18    0.67501
   19    0.22938
   20   -0.46612
   21    0.59674
   22   -0.12623
   23    0.23483
   24    0.97814
   25   -0.34996
   26   -0.34244
   27   -0.84594
   28   -0.02162
   29   -0.59058
   30    1.18738
   31   -0.18483
   32   -0.23874
   33    0.11376
   34   -0.16941
   35    0.58314
   36   -0.16334
   37   -0.21614
   38    0.09411
   39   -0.23433
   40    0.61508
   41    0.86680
   42    1.08629
   43   -0.32946
   44    0.65876
   45   -0.92099
   46   -0.41842
   47   -0.84112
   48   -0.01756
   49    0.05965
   50   -1.19594
 Ene= 0.0
 Spin= Alpha
 Occup=     0.0000
    1   -0.05682
    2    0.26866
    3    0.70839
    4   -0.47014
    5    0.85981
    6   -0.40798
    7   -0.23151
    8    0.25496
    9   -0.05683
   10   -0.23590
   11   -0.91469
   12    0.48222
   13    0.76646
   14    0.15223
   15   -0.21033
   16    0.01234
   17   -0.53711
   18   -0.69335
   19   -0.19331
   20    0.26799
   21   -0.30869
   22   -0.10839
   23    0.19176
   24   -0.01776
   25    0.43976
   26    0.68712
   27    0.08655
   28   -0.37138
   29    0.17731
   30   -0.53635
   31   -0.02257
   32   -0.05397
   33    0.36942
   34   -1.05541
   35    0.47723
   36   -0.11468
   37   -0.13671
   38    0.71515
   39   -0.74731
   40    0.47163
   41   -0.11243
   42    0.19414
   43    0.12553
   44   -0.39074
   45    0.40998
   46   -0.18447
   47   -0.00917
   48    0.37422
   49   -0.37530
   50    0.69140
 Ene= 0.0
 Spin= Alpha
 Occup=     0.0000
    1   -0.00373
    2    0.03933
    3    0.03812
    4   -0.11736
    5    0.03453
    6   -0.02886
    7    0.58461
    8    0.35919
    9   -0.01432
   10    0.59858
   11   -0.72217
   12    0.04724
   13   -0.41730
   14   -0.23803
   15   -0.15249
   16   -0.00132
   17   -0.07229
   18   -0.02837
   19    0.54564
   20    0.30880
   21   -0.03954
   22    0.15382
   23    0.12537
   24   -0.00129
   25   -0.72077
   26    0.85802
   27   -0.00134
   28    0.59758
   29    0.60883
   30    0.26275
   31   -0.45555
   32   -0.38769
   33   -0.47931
   34    0.26450
   35    0.05424
   36    0.47198
   37    0.37780
   38    0.07559
   39   -0.70074
   40    0.02928
   41   -0.00457
   42    0.01715
   43    0.40222
   44    0.17926
   45    0.03998
   46   -0.05569
   47   -0.01476
   48   -1.49395
   49   -0.84048
   50    0.08093
 Ene= 0.0
 Spin= Alpha
 Occup=     0.0000
    1   -0.00625
    2   -0.00508
    3    0.13385
    4    0.20503
    5   -0.40420
    6   -0.26808
    7   -0.09003
    8   -0.24216
    9    0.13388
   10   -1.19013
   11    0.03737
   12    0.67763
   13   -0.73606
   14   -0.04904
   15    0.06672
   16    0.00929
   17   -0.21426
   18   -0.85767
   19    0.21666
   20   -0.20056
   21   -0.17976
   22   -0.02966
   23    0.20221
   24    0.29607
   25    0.34711
   26    0.77417
   27   -0.35038
   28   -0.23758
   29   -0.24045
   30    0.27128
   31    0.48450
   32    0.01411
   33    0.55057
   34    0.66370
   35    0.50002
   36    0.33456
   37   -0.19657
   38   -0.76684
   39    0.22350
   40    0.32129
   41    0.31549
   42    0.52519
   43   -0.56897
   44    0.85990
   45    0.28595
   46   -0.54665
   47   -0.09525
   48    0.13308
   49   -0.47630
   50    0.70627
 Ene= 0.0
 Spin= Alpha
 Occup=     0.0000
    1    0.00377
    2   -0.01322
    3   -0.02075
    4   -0.11468
    5    0.02252
    6    0.01792
    7   -1.04608
    8   -0.53096
    9    0.01716
   10   -0.63197
   11    0.78621
   12   -0.05786
   13    0.69211
   14   -0.17578
   15   -0.12318
   16    0.00827
   17    0.06632
   18   -0.02359
   19    0.55162
   20    0.30304
   21    0.06013
   22    0.40615
   23    0.12174
   24   -0.01375
   25   -0.36340
   26    0.19696
   27    0.05285
   28    0.37085
   29   -0.33472
   30   -0.23312
   31    0.34689
   32    0.64292
   33    0.90975
   34   -0.27988
   35    0.53119
   36   -0.46526
   37   -0.61048
   38    0.47794
   39    0.86730
   40   -0.64024
   41   -0.01611
   42   -0.04338
   43   -0.38650
   44   -0.35758
   45   -0.04493
   46    0.13988
   47    0.03945
   48   -0.77913
   49   -0.24284
   50   -0.12856
 Ene= 0.0
 Spin= Alpha
 Occup=     0.0000
    1    0.00431
    2    0.01071
    3   -0.03704
    4    0.30535
    5    0.19001
    6   -0.01723
    7    0.55594
    8    0.33032
    9   -0.00081
   10   -0.46181
   11    0.44340
   12    0.02032
   13    0.32972
   14   -0.31030
   15   -0.19080
   16    0.00568
   17    0.02405
   18   -0.04920
   19    0.17250
   20    0.08176
   21    0.01367
   22    0.03398
   23   -0.03746
   24   -0.01386
   25   -0.12644
   26    0.09515
   27   -0.00034
   28    0.14932
   29    0.11580
   30    0.03277
   31    0.11805
   32   -0.41757
   33   -0.26890
   34   -1.25769
   35    0.05699
   36   -0.09190
   37    0.43810
   38   -1.18981
   39    0.40429
   40   -0.02196
   41    0.01921
   42   -0.02307
   43    0.01754
   44   -0.00134
   45   -0.00315
   46    0.05749
   47    0.03392
   48   -0.35931
   49   -0.12434
   50    0.00343
 Ene= 0.0
 Spin= Alpha
 Occup=     0.0000
    1    0.11374
    2    0.29923
    3   -0.85168
    4   -0.11678
    5    0.18050
    6   -0.24183
    7   -0.22358
    8    0.46345
    9    0.55068
   10   -0.38483
   11   -0.20868
   12    0.33440
   13   -0.29449
   14    0.13977
   15   -0.18369
   16    0.14289
   17    0.59165
   18   -1.64913
   19    0.04141
   20   -0.15142
   21    0.20796
   22    0.49261
   23   -1.01539
   24   -0.17166
   25    0.26843
   26   -0.68083
   27   -0.24633
   28    0.71558
   29    0.29435
   30   -0.51302
   31    0.49694
   32    0.29004
   33    0.41877
   34   -0.07597
   35   -0.00241
   36    0.54104
   37    0.29502
   38   -0.09012
   39   -0.50365
   40    0.05431
   41    0.61351
   42   -0.48238
   43    0.02580
   44    0.03176
   45   -0.04672
   46    1.31542
   47    0.85096
   48   -0.44519
   49    0.93571
   50    0.47130
 Ene= 0.0
 Spin= Alpha
 Occup=     0.0000
    1   -0.00572
    2   -0.03885
    3    0.05102
    4   -0.01559
    5   -0.00874
    6   -0.01103
    7   -1.01809
    8   -0.59224
    9   -0.03104
   10   -0.40305
   11    0.49054
   12   -0.01795
   13    0.38631
   14    0.88596
   15    0.49779
   16   -0.00386
   17    0.02283
   18    0.01532
   19   -0.21207
   20   -0.12185
   21   -0.02027
   22    0.01081
   23   -0.00358
   24   -0.01977
   25   -0.17631
   26    0.13063
   27   -0.00418
   28    0.13530
   29    0.68693
   30    0.34273
   31    0.77579
   32    0.64212
   33    0.44169
   34    0.00507
   35   -0.69912
   36   -0.86975
   37   -0.68427
   38    0.30072
   39    0.42069
   40    0.73768
   41   -0.00412
   42    0.01570
   43    0.79398
   44    0.43753
   45    0.01424
   46    0.00819
   47    0.00517
   48   -0.43150
   49   -0.20692
   50    0.03463
 Ene= 0.0
 Spin= Alpha
 Occup=     0.0000
    1    0.11184
    2    0.84860
    3   -1.30332
    4   -0.05641
    5    0.10298
    6    0.18449
    7   -0.30916
    8    0.44068
    9    0.71220
   10   -0.88493
   11   -0.23249
   12   -0.23889
   13   -0.50394
   14    0.24604
   15   -0.32852
   16    0.01239
   17   -0.31689
   18    0.25961
   19   -0.08342
   20    0.10909
   21    0.17805
   22   -0.22371
   23    0.43779
   24    0.43857
   25    0.10586
   26    0.42964
   27    0.08980
   28   -0.24087
   29   -0.10857
   30    0.32878
   31    1.00095
   32    0.39562
   33    0.60774
   34    0.05379
   35   -0.44556
   36    0.90867
   37    0.32251
   38   -0.35597
   39   -0.41040
   40   -0.39196
   41   -0.01647
   42    0.17009
   43    0.18891
   44   -0.24257
   45   -0.30985
   46   -0.53965
   47   -0.47517
   48    0.17723
   49   -0.37724
   50   -0.65099
 Ene= 0.0
 Spin= Alpha
 Occup=     0.0000
    1   -0.09236
    2   -0.38741
    3    2.40193
    4    0.04331
    5   -0.07373
    6    0.17971
    7    0.02436
    8   -0.06391
    9    1.51552
   10   -0.41974
   11   -0.69622
   12    0.82786
   13    0.25440
   14   -0.00453
   15    0.02098
   16    0.02749
   17    0.23264
   18   -2.66483
   19    0.03916
   20   -0.07865
   21    0.01687
   22   -0.01262
   23    0.02234
   24    1.60392
   25    0.75859
   26    0.68156
   27   -0.63894
   28    0.06212
   29    0.02457
   30   -0.03987
   31   -0.28901
   32   -0.00591
   33   -0.13262
   34   -0.08374
   35   -0.19771
   36   -0.30454
   37   -0.02781
   38    0.13455
   39    0.05804
   40   -0.18177
   41    0.10666
   42    0.25531
   43    0.06326
   44   -0.12013
   45    0.39646
   46    0.17912
   47   -0.06625
   48    0.00701
   49   -0.02320
   50   -0.16017
 Ene= 0.0
 Spin= Alpha
 Occup=     0.0000
    1   -0.02875
    2   -0.09649
    3    0.20874
    4    0.00039
    5   -0.01090
    6   -0.13186
    7    0.21568
    8   -0.32734
    9   -0.13431
   10   -0.01015
   11   -0.04029
   12    0.18024
   13   -0.00153
   14    0.28865
   15   -0.50845
   16   -0.00873
   17    0.00944
   18   -0.15670
   19    0.02760
   20   -0.04696
   21    0.10618
   22   -0.22532
   23    0.39206